% Model:              physical-model-test-0514-0521.mph
% Version:            COMSOL 5.2.1.152
% Date:               Nov 8 2016, 15:27
% Dimension:          2
% Nodes:              2827
% Expressions:        1
% Description:        曲面
% x                       y                        Color
1.6338206791613388        1.4367819584435282       -17.57210405081698
1.6338899069045298        1.435801198153968        -17.557897801337816
1.6382180415564715        1.4367819584435284       -17.564504447436732
1.6382180415564715        1.441179320838661        -17.619242251088565
1.6392112977996534        1.4411077768011324       -17.618456664621483
1.9817819584435283        1.441179320838661        -17.622550882238713
1.9807904643972833        1.4411093342998533       -17.621447090084114
1.9817819584435283        1.4367819584435284       -17.557831000529962
1.986179320838661         1.4367819584435284       -17.554062636988668
1.9861065567055494        1.4357717634365135       -17.540196606002844
1.6199395308044817        1.4342851079403958       -17.534453381691602
1.6148818079971388        1.4339497035986997       -17.52956056686699
1.6162718609090032        1.4317940089286152       -17.499501206633486
1.6108614965970294        1.4310936189184382       -17.489541135661952
1.6096277886244477        1.4337726019508095       -17.52690249804667
1.6060729647275962        1.4298776601967185       -17.47265383813818
1.6248292428131115        1.434461072610373        -17.537233958053722
1.6213402742097383        1.4322642404698103       -17.506283819724704
1.620137302936764         1.4290836071059625       -17.462549393773145
1.5864669985976938        1.4022053585877325       -17.108167972236206
1.5836342013926048        1.3974237023893652       -17.04575912442271
1.5876031695579371        1.3994450332777502       -17.071871861472456
1.590446534953525         1.4042315750414773       -17.1342866275386
1.5893749985613805        1.4068431656679885       -17.16865361128757
1.593419696230727         1.4087633811269282       -17.19333186216733
1.5923602205970901        1.4113540752577138       -17.227463992032362
1.6024507561524088        1.4255621856945222       -17.414166159987044
1.6067760433819747        1.4271126853043492       -17.434863131265164
1.6142262416638264        1.4283319654659203       -17.451850201443992
1.6102962238432479        1.4261617402663764       -17.422188581054296
1.598935768009665         1.4207554897197712       -17.35043880866462
1.6032840376998363        1.4229647733943382       -17.379296479671037
1.5965647782929657        1.4134149698565408       -17.253979013241665
1.5955410379795838        1.4159503751022096       -17.287447497343795
1.5999207883588598        1.418219907316899        -17.316766585960554
1.6262029477904374        1.4325468140494038       -17.510551675659624
1.6295084431219258        1.4345754284410708       -17.539150500025723
1.6250789738178464        1.429474035997543        -17.468281796549288
1.5808716212394511        1.3925018998794116       -16.981463143929897
1.5848227819529959        1.3947237834965929       -17.010284461820035
1.5781786979370347        1.3874395938534854       -16.91528621490783
1.5821418226364807        1.3897412645625011       -16.94521198947609
1.5893311180486591        1.395362439159417        -17.018533111064524
1.6174660096242643        1.4242609753758795       -17.397618874182204
1.6230245768806655        1.4250208039264072       -17.40841796404516
1.592018890442633         1.3998393416785095       -17.076878409057432
1.5944068261844273        1.4037711337796093       -17.128111019808014
1.5979742684252862        1.4092437581843598       -17.199428936889593
1.6069376611216526        1.4220202788570602       -17.36679510736519
1.6120749975519795        1.4229559749323488       -17.379672333693247
1.604564648474372         1.4190681683622601       -17.32785453059392
1.6013021499249782        1.414216117578914        -17.264291952695995
1.6296077809733678        1.4297061750006475       -17.471763484526477
1.6308128931093036        1.432753551985198        -17.513691619720305
1.6339729801963592        1.4346242858064957       -17.540819494981815
1.6276472969536226        1.42577083297879         -17.418870058412935
1.5755596283519713        1.3822323122584466       -16.847155828737936
1.5795547558263017        1.3846020457538553       -16.878059537084027
1.5730171001905497        1.3768760946030647       -16.777005226514635
1.5770488483761034        1.3794852771255577       -16.8111267833058
1.5705526819678397        1.3713684714140217       -16.70482780195219
1.5745071947066134        1.3739758191947564       -16.73899563691015
1.568170607577794         1.3657042143919529       -16.63054307105806
1.5721480091445954        1.368536964328318        -16.66773551550227
1.5658792493214972        1.3598752507616692       -16.554042841918776
1.5698253483168145        1.3627600430663414       -16.59199859904123
1.563690453339641         1.3538739977035372       -16.475246820247
1.5676736914139708        1.3568205021957436       -16.514072007976647
1.6406657090330021        1.4550733321950498       -17.80671129711913
1.6404993890088657        1.450175818676756        -17.740354507349238
1.642637933848691         1.4535837708205468       -17.78659072089373
1.5869623840209879        1.3909940950822668       -16.961549020742382
1.583948690875089         1.3850283393380434       -16.883665348732762
1.594507357462825         1.3946755532337545       -17.009709151167893
1.592468846644245         1.3904015736049127       -16.953984880487425
1.6151585195903548        1.4196896822367926       -17.337102461383104
1.6208016071439608        1.4191937482033399       -17.331295394155294
1.6256117059214952        1.4202209576692961       -17.345383913335663
1.5975401155705944        1.399204859471554        -17.068758245822334
1.6004406282994288        1.4043823911160709       -17.13620166979587
1.6034935182501822        1.408069252580448        -17.184298683854966
1.6051758929316227        1.40271812755425         -17.11485726754387
1.6098225514541977        1.4175571153834463       -17.308523470839308
1.606579615523378         1.4127834716011427       -17.24589044489819
1.631510031631808         1.426169581440474        -17.424455959521467
1.633320942858028         1.4297469198199324       -17.472330808934256
1.6351948170340256        1.4327776207601794       -17.51445850515756
1.6299400927419216        1.4211283424660701       -17.35774698808552
1.5819458266832005        1.3808066356651585       -16.82849608961644
1.5793456500545167        1.3757000058604478       -16.761709207417315
1.5770239727165782        1.3701310531899578       -16.68881992116991
1.5744139809247284        1.363503152228686        -16.601989896417084
1.5616145957667955        1.347692066604622        -16.39403164265955
1.5655618237504128        1.3507495966989749       -16.434383886357313
1.5596593831562588        1.341320893804211        -16.31029428324236
1.5635496070636812        1.3444265497704144       -16.351345196046893
1.5726095975085375        1.35905892402384         -16.54372675812903
1.5703822212414742        1.3520461448303263       -16.451755227636657
1.5578334591734642        1.3347537805396013       -16.22395564531898
1.5561455598851308        1.3279812030140719       -16.134882300693473
1.5601304453048026        1.3317407897574722       -16.184653146001708
1.5618097486800864        1.3382347916697332       -16.269996732099816
1.6404032052914714        1.4410219239560982       -17.617486639119548
1.6404248532103443        1.4454872574691047       -17.676945839649008
1.642427461939061         1.4487121083336507       -17.72043239716967
1.6424476725488342        1.44387922943493         -17.655319913542147
1.6432075065959173        1.4585281064101274       -17.85300345935875
1.641048458428582         1.4601189889554678       -17.874120424379672
1.6441287240239484        1.46388574733431         -17.924023022049848
1.6413120175231082        1.4653327103133675       -17.943143653902688
1.6451836076493307        1.468851956852478        -17.989113653775117
1.6455382537170415        1.4544141650104248       -17.797774549802465
1.6453618117900601        1.4498735662404554       -17.736295000295886
1.5899003352908219        1.38580321737517         -16.893974891553146
1.5875156724422808        1.3804254878094777       -16.82377359552053
1.5999578788403699        1.3944722792559807       -17.00733581677655
1.5954922819699233        1.3855348773527623       -16.890784466173706
1.5995243160098833        1.3893687499095764       -16.94092429357667
1.628080924938563         1.415035271167593        -17.27765765115016
1.6168782464188065        1.4148784127156668       -17.274332952016646
1.6227995745869392        1.4143927430058247       -17.268695147922447
1.6034780805045428        1.3972586693029303       -17.043765450247818
1.6080581762247788        1.4001188640186506       -17.081317785540918
1.610138241419972         1.4054067576526066       -17.150191420360613
1.6130974687329838        1.4109591339968437       -17.22273945583262
1.6341856871944238        1.422128995245356        -17.37113414128719
1.6392002637829461        1.432985127724436        -17.51398603957246
1.635884356759488         1.4261498369657273       -17.424050183163285
1.6371917238757936        1.4301336751918212       -17.476961702872842
1.6327553989061054        1.4167231059910579       -17.30011263112077
1.6481362202211367        1.4681801015045952       -17.980030495145424
1.649442609661823         1.4724645655554556       -18.03637933346952
1.6519146873560238        1.471562923551262        -18.024827869607478
1.654145286913338         1.4759499512853211       -18.083692763536753
1.585435688580908         1.3753188244576224       -16.757026024870132
1.5827683913158512        1.370439891698078        -16.693171050230944
1.5805124405568303        1.3652199063861175       -16.62481300854319
1.57887794630468          1.358957580323988        -16.54283313163144
1.5686869218358244        1.3469149668929015       -16.384407688350816
1.5666671715873604        1.3399536631093703       -16.293017591300416
1.576823327158156         1.3536801012371236       -16.473590515961572
1.5747817805538993        1.3481289301189727       -16.400789664141243
1.5546066462058346        1.3209932031835747       -16.04295675272807
1.5585969742236434        1.3248994087447816       -16.094712579131993
1.5532307615700784        1.3137811745014123       -15.948067564361157
1.557230003213409         1.3179730017991467       -16.00363880087882
1.563801284173224         1.3281471622321839       -16.137916837087136
1.5652622428028042        1.3344744648126246       -16.221041610872145
1.5520322242475972        1.306333100290561        -15.850048693991743
1.5560438386727262        1.3107159142298093       -15.908210501354096
1.5510279779087144        1.2986395918303122       -15.748795601688332
1.5550071530103071        1.3032612073660599       -15.810156885481211
1.642061723984497         1.4394533871140103       -17.596445599120667
1.6451963352656318        1.445502829733057        -17.677277121257564
1.6452645166055468        1.441852946527939        -17.628397652015973
1.6470069374174465        1.4592999334859584       -17.86311090548934
1.6484326623323144        1.4638134387341748       -17.92271547485909
1.6499427615791307        1.4563036102031064       -17.823258859713828
1.6490250713928376        1.4473002484840696       -17.7022004201891
1.6495186726521474        1.452246077326939        -17.768796806829556
1.5906142209334786        1.3758415286032921       -16.764159176442362
1.6320246711089088        1.412163968274251        -17.24044761135156
1.6282979290728947        1.4099823163178882       -17.211662088785165
1.594855843382381         1.379634519731584        -16.81388532617552
1.6051943450060489        1.3919130835546063       -16.974421850762436
1.600376673456531         1.3836854324196763       -16.867049082738593
1.6050308722312325        1.3869231611595025       -16.90952455703011
1.6242103212042653        1.410064810405881        -17.2123234705884
1.6190626631754221        1.4096051737436017       -17.20576445912114
1.6086958731905128        1.3954301042020334       -17.020431698714308
1.612438237759004         1.398912029687289        -17.066016966439506
1.6155842051535163        1.4044149407952593       -17.137841396313576
1.6414091779062672        1.4354781624401893       -17.54473057312992
1.6367328913336834        1.4184599031632248       -17.323093999647515
1.6378016948142036        1.4224603026003815       -17.375506554383264
1.6427296228472912        1.4320742163636322       -17.500311914431908
1.6414601068940553        1.429333420117014        -17.465088719152956
1.6396178431379278        1.426310787228717        -17.42589758839972
1.6351053304292609        1.409066110307442        -17.20025505297562
1.636925508272742         1.4132697353298314       -17.25521875726108
1.6403089550702326        1.416512428202667        -17.297715543980324
1.6523984387639719        1.4674293079603558       -17.970655185320606
1.6568025310586283        1.4750007065406925       -18.07159296531969
1.6588095403676868        1.479294904281998        -18.129355113130956
1.6558167774023458        1.4702885487305013       -18.00905836453904
1.5502383926497303        1.2906898006522216       -15.644153349173882
1.5540909769414313        1.2957467740676514       -15.71128967185353
1.5496858265813447        1.2824713623835111       -15.535963863635612
1.553574729253879         1.2875901756858292       -15.603995763942306
1.5865871744905988        1.3654968220885346       -16.628837436237134
1.5904486263342352        1.3698472223093792       -16.685944131377678
1.5835441530697716        1.354125953870009        -16.47991593773416
1.586132972500993         1.35972247980364         -16.55332309708407
1.573414497016823         1.342014679257596        -16.320538602395633
1.5712917883774211        1.3360692497094275       -16.242464258220362
1.5833870118773459        1.3482772899889428       -16.4033206486785
1.5795728590571583        1.3431830959326838       -16.33629120227487
1.5625422948778884        1.3211550931424896       -16.04603515485215
1.5615216379527923        1.3143206558019298       -15.95620449779756
1.5686886674094098        1.3232591831010176       -16.074189954274868
1.5702433367081607        1.3297813582483016       -16.15988167852407
1.5604196951946259        1.3066811025149103       -15.855770529013332
1.5594963698701148        1.2982160520939154       -15.744466036481553
1.6446277299983911        1.437706101881375        -17.57314413333909
1.6490421155292934        1.4432999932613566       -17.64857730832789
1.648535787897341         1.4388907227936987       -17.58975675621716
1.652467644588337         1.4612759053928266       -17.889665550715552
1.6540678945414153        1.4548579866972822       -17.80456091619659
1.6538807502051014        1.4446612448978202       -17.668021819715396
1.6541388777070118        1.4495794366132102       -17.733900970088712
1.5959556680298237        1.3734754438673291       -16.7336794668666
1.6312242357945013        1.4068894108375767       -17.171586129932262
1.6269345118301701        1.4054886805581586       -17.152961017587575
1.6016629860181335        1.37736017440684         -16.784750365210016
1.6096875713984191        1.390877306771505        -16.961331028955716
1.6058505845972706        1.3817636029547882       -16.842444089786827
1.609660396217916         1.3856910046958533       -16.89385163050077
1.6221428283868264        1.402955878756866        -17.119529009608453
1.6139643869016498        1.3935088428355926       -16.99592487446913
1.6178468470927556        1.397892623593497        -17.05328367970729
1.6453652633559983        1.4340081432932053       -17.525232374488812
1.641506843563747         1.4210371782819058       -17.356846427791222
1.6455729491768005        1.4296763875094218       -17.469177536753932
1.6442377864435813        1.4254020522745243       -17.41372805450337
1.6354942413353988        1.4042932895183347       -17.138079486121693
1.639497954313176         1.4088117864745977       -17.19722550400854
1.6422254546722277        1.4125965346898057       -17.246714219756583
1.64478728309108          1.4166877061403729       -17.300164781659664
1.657001743719142         1.4650614713998116       -17.94050953492277
1.6612380602861319        1.478214898212725        -18.115370561807058
1.663310265534787         1.4824002215064485       -18.17163377470639
1.6611143992689237        1.4735813930782546       -18.053951715229204
1.6614502058692844        1.4684124300358863       -17.985819120409683
1.665692149153594         1.4812427600550118       -18.156486254844165
1.6677022958160301        1.485321423680556        -18.211150610681088
1.549391700602711         1.2739502097845001       -15.423766885787789
1.549383679178969         1.2650011530808463       -15.305921145906286
1.5531624776181616        1.270855708157742        -15.383796744908343
1.5532787804390056        1.2792734060452755       -15.494572663452749
1.5589234367493916        1.2922481559699368       -15.665980538782252
1.558975048446908         1.2840768704505334       -15.55851512661269
1.5926716140615382        1.3630305411717538       -16.597036212278287
1.5981685363192117        1.3680872187986468       -16.663491790011182
1.5896593862292119        1.3528118282788695       -16.46312364149369
1.5941351516498448        1.3572228870137735       -16.521137568381135
1.5764997840409047        1.3312521488983775       -16.179603223194476
1.5917156797059981        1.3470737318575177       -16.388034532544292
1.5798874855852476        1.3364723455068555       -16.248339848332762
1.586428235012017         1.3414612688865168       -16.314164634788213
1.567812457728622         1.3157846807039175       -15.975975151899286
1.5672826917587457        1.3092089177621586       -15.889585806033923
1.5742198783839318        1.3186780422297375       -16.014384821944176
1.5773719814431255        1.3243633913110116       -16.08925124704187
1.5663441190019136        1.3023044556985661       -15.79877441704017
1.5662865001843016        1.2945184630996913       -15.696443681582599
1.6484301442097573        1.4354300194760057       -17.54420415792788
1.6535109954651175        1.4401183434399136       -17.607392331264787
1.6528433884010956        1.4365786980094923       -17.560390520225276
1.6589280325350382        1.452850936811631        -17.778729292994353
1.6584394340202808        1.4584916566978          -17.853778905802326
1.6584492548792           1.4416122252015517       -17.628574108874883
1.6589497190422797        1.4466346284974756       -17.695672335061982
1.6627356970049882        1.4492001678987085       -17.73083419207582
1.6025771781975875        1.3721548421575172       -16.716900106477237
1.6294131082599241        1.4010049901940833       -17.094786419368422
1.6081948795756527        1.3769382641032057       -16.779716828222202
1.6145651304465072        1.387539596445914        -16.918308270070046
1.6125783671587357        1.3811595863942108       -16.835031948666302
1.6248309890988342        1.3962889317513867       -17.03303574341366
1.619850220880651         1.3912851554494137       -16.967497371529173
1.6349253970588424        1.3989767793509191       -17.068756515226294
1.64954860162783          1.430915106144243        -17.485534148786524
1.646814709242164         1.4215780430414315       -17.363938202991935
1.6488148051523597        1.4264830273105031       -17.427856565781862
1.6398685509154358        1.4001842955662525       -17.084786383337406
1.640854833865105         1.404830355631571        -17.145417250853022
1.644385945253551         1.4078746438963268       -17.18529400124731
1.647150056577888         1.4121182043062164       -17.240750121445302
1.6499028624121828        1.4172150360125715       -17.307305496185048
1.6627928715385552        1.4617978023265858       -17.898601398948383
1.6655546764548317        1.4769961215806908       -18.100171477120245
1.6663885611448555        1.47165981457275         -18.02988833737169
1.6675149418616262        1.4656755171291194       -17.951018312511774
1.6703573514848222        1.4842633267726904       -18.197240667511455
1.672220227698597         1.4881926754496682       -18.24980748964008
1.6695253326576494        1.479883699994212        -18.13916519895668
1.6749166417189578        1.4870887128561816       -18.235184916715383
1.6768865220721416        1.4909808416272057       -18.287092301093605
1.549696992218745         1.2558387468208438       -15.185282533180892
1.5534707215418713        1.2617594967687498       -15.264076083925898
1.550355576559572         1.2465051696648963       -15.062386769391495
1.5539627879448095        1.2529231025158545       -15.147808118689001
1.559048270659853         1.2656226438772273       -15.31574911542806
1.5586671078363046        1.275692882078326        -15.4482110946122
1.565409060708624         1.287683823719461        -15.60650221248729
1.5660015912186294        1.279748251930599        -15.502172815378946
1.5997137744829297        1.3624919156701267       -16.590436375379824
1.604659033476012         1.3674776116620269       -16.655915820980738
1.5968673953560337        1.3523840623072496       -16.457918288429166
1.6017730526694933        1.3572817892995708       -16.522317228688948
1.598835297808727         1.3465741833882603       -16.381813601003802
1.5836406358746755        1.3302944896825664       -16.16747416509297
1.5930580550630864        1.3411533206762134       -16.310453400450324
1.5888676973382592        1.3357432170991468       -16.239239928434575
1.5735196056921013        1.3048486414897553       -15.832648605315962
1.5760629622113818        1.3114966979912315       -15.920152320233608
1.5822504756570894        1.3176906411381544       -16.001852909718508
1.5863277447005013        1.324283322321974        -16.088629240956127
1.575585254075477         1.2972315797042675       -15.732607588576247
1.5732677715950094        1.2902724772552927       -15.640974620740161
1.6533263133904148        1.4327691329988126       -17.51042279324766
1.6575902583367315        1.4359828208644223       -17.553701281410227
1.6649488938479333        1.453968112957484        -17.79492671812035
1.6620744379542316        1.4382944511180327       -17.585414806080735
1.6639886356761457        1.4440519546575763       -17.662460918570574
1.6676616028052533        1.4483551122295153       -17.72068297090095
1.6105636564290167        1.371648696176805        -16.710782429037753
1.6311182431686766        1.394777589148571        -17.013798805653618
1.615392288447671         1.3759428157786575       -16.767129323603765
1.620359208641455         1.3830875216042235       -16.860697409878757
1.626744404617547         1.3889696925165635       -16.93781782303714
1.6381869788697223        1.3941464752360633       -17.005960038642097
1.6434880693451972        1.397175356307526        -17.045728869955767
1.653489501208426         1.428050593109557        -17.448763818549313
1.6527691876488624        1.4224845180013674       -17.376127938329265
1.6457100626124548        1.4024988199596249       -17.115290498077638
1.649405577005223         1.4071423063169306       -17.176032902138193
1.6520931652268567        1.4122505582067861       -17.242767142138238
1.6548269113477645        1.4167214825483148       -17.3012337724094
1.6688408250884161        1.4581859065392477       -17.851885723091332
1.6709579856019154        1.4754986080263965       -18.081598277289277
1.6719162840302078        1.4696662799195752       -18.00480241569404
1.672443084016265         1.4621756147732228       -17.905669420211197
1.6750118402886238        1.4830613876259595       -18.181955340006542
1.6755321126117162        1.4780225220000234       -18.115735132515123
1.679588250965928         1.4898077434402246       -18.271447360683368
1.6816836161239843        1.493682908103277        -18.323102275641894
1.6785989901571545        1.4853036538326279       -18.21190486997708
1.684411437579572         1.4924511996056695       -18.30660254926154
1.6865938201544626        1.4963247373705362       -18.358234135051507
1.5513903113293899        1.2368929751740372       -14.935798494157709
1.5528385578946144        1.2269719518910702       -14.805121022518595
1.556061143689443         1.2339275464583357       -14.897780167422995
1.5547980277170035        1.2435651559399483       -15.024649066293193
1.5547419580894213        1.216742455672174        -14.670365442563291
1.5578943468829676        1.2240847731582158       -14.768225851443304
1.5595764371040965        1.2587787704086104       -15.225729384485646
1.5605369120590962        1.2497237369434906       -15.106587766989739
1.567235932850768         1.262639574634179        -15.277073560003984
1.5663610342090752        1.2708314041437367       -15.384828535551724
1.575257590271884         1.2824232327109375       -15.537769199278602
1.5735166722562082        1.275361793217049        -15.444786826631887
1.6068227290947121        1.3619390588356752       -16.583561605946503
1.6120262406624868        1.3660474481871112       -16.637554354737574
1.6038114282340907        1.352064921010518        -16.454027740566655
1.6085451692104875        1.3562276493143908       -16.508778482213938
1.6057139659513437        1.346356869337146        -16.379179229592243
1.6011115020002076        1.3411639726497848       -16.310886341911417
1.5912038201116696        1.3304201712380817       -16.169436120582414
1.5964811321360708        1.3355255527027028       -16.236690873771522
1.5937970767140865        1.3245389283509597       -16.092212563967237
1.5817143792240154        1.3045210934341964       -15.828704903954813
1.5858574786489883        1.311763964916588        -15.924051120400089
1.5900077759121394        1.3181044976159084       -16.007550235960963
1.5855948058793103        1.2975786920160368       -15.737478197934749
1.5814200862060939        1.290546358599518        -15.644877437103647
1.6578107794526573        1.4309871021239065       -17.48797808578143
1.6617553298941834        1.4332524419244277       -17.51863177557991
1.6660599557922966        1.4349909211303737       -17.54255797156972
1.6707836649462902        1.4522084838968512       -17.772721090677706
1.6671215590333726        1.4394910020959266       -17.602509776635458
1.6689126945885147        1.443748547778344        -17.659570513685964
1.6725778764805694        1.446463312324655        -17.696541918020397
1.6192815629643833        1.3683902691744299       -16.668541313214945
1.6341744138855328        1.38790854584104         -16.924368310985674
1.6239393195369933        1.375150439347882        -16.75718009440749
1.6291128059658497        1.3818466108970762       -16.84494557113115
1.6410349746272108        1.3874874457484012       -16.919088522558557
1.6451389845149125        1.3923641488785519       -16.982977035486897
1.6491484476933826        1.3974241264772298       -17.049230680731927
1.6580657091519102        1.4252579262615799       -17.412972343815877
1.6582165630790375        1.4201713459906902       -17.34655548689139
1.659433975558782         1.4155853907302243       -17.28682315248286
1.6517945496279196        1.4025551304632367       -17.116336521785737
1.6549098488877756        1.4074655400682379       -17.180564112117313
1.6573532075648452        1.4118160444461363       -17.23746071337736
1.6741223534717509        1.456452677229807        -17.829942390703522
1.6775089603466105        1.4598063508932124       -17.87529483960564
1.6764484385207539        1.4719756398220594       -18.03625095196372
1.677245384414251         1.4652873291871817       -17.947980045673194
1.6798209636840558        1.480719040167693        -18.151886668485545
1.6801708345411586        1.4751537262105987       -18.078812657023583
1.6834958643123599        1.487739216427481        -18.24432788032887
1.6838951137400622        1.482562323307227        -18.17655026207956
1.6894709184405037        1.4949949886226521       -18.340389567500083
1.691626274536299         1.4988968019856521       -18.392410032014897
1.6887463426782932        1.4905170281693294       -18.281092450951547
1.6946695112667096        1.4975657208711692       -18.374559841106983
1.6967909748030736        1.5013856298416226       -18.42546483836305
1.557153301239626         1.2062049547948623       -14.53151561598465
1.5601928891350203        1.2135376665564297       -14.629335053997531
1.5630923492676216        1.2310411814063769       -14.860722125847232
1.5615186392347884        1.240557691172038        -14.985959642195096
1.5650018427361925        1.2217963781966263       -14.73904988744311
1.5675810915154877        1.2542884250865856       -15.16716625717965
1.5698301349389183        1.2453125846960456       -15.049123154981443
1.575898451419047         1.2590596372368474       -15.230263834551716
1.5854397776700195        1.2838312175544941       -15.556576660415539
1.5759802714164397        1.2682840518772094       -15.3516923475771
1.5823695151425228        1.275791895564432        -15.450688097127673
1.6147102002549583        1.359450694003301        -16.551233950646477
1.622748628953738         1.361564943442601        -16.579127105540437
1.6125351721791739        1.3505471189792577       -16.43438226582509
1.6113079919236042        1.3414633452790827       -16.31504411564968
1.6048039077624303        1.3356567624369826       -16.23860324519866
1.6003385299596136        1.3288600496579275       -16.14920231462152
1.5983450474371323        1.3202143421057067       -16.035454903332663
1.5899959453918482        1.305908117472092        -15.847137300361771
1.5943009133284718        1.31304683161452         -15.941111730111873
1.5940738235955967        1.2993974712940164       -15.761526237366196