% Model:              physical-model-test-basic-70天单管.mph
% Version:            COMSOL 5.2.1.152
% Date:               Nov 6 2016, 09:31
% Dimension:          2
% Nodes:              512
% Expressions:        1
% Description:        曲面
% x                       y                        Color
1.9961889276922862        1.4367819584435282       -17.295011260348915
1.9817819584435283        1.4367819584435284       -17.298776444088528
1.9955891603837448        1.4341517617571893       -17.263381160386746
1.9817819584435283        1.4511889276922862       -17.47557237628773
1.9790812376574332        1.4505738434929536       -17.468019068009315
1.6382180415564715        1.4511889276922862       -17.474825897167136
1.6382180415564715        1.4367819584435284       -17.29848942018629
1.6408478420554917        1.4505892507268752       -17.467686705778895
1.6238110723077135        1.4367819584435282       -17.30137525511113
1.6245726668282123        1.433437329938512        -17.259094327870454
2.0179597353496095        1.4175413399764092       -17.06010259563392
2.0088314118452386        1.4306487597343471       -17.218721100815586
2.007139981305975         1.4195426250255492       -17.085488269434055
2.0002782937996573        1.426063012310318        -17.164984065422377
1.9948694396134952        1.4309955257335825       -17.22542425224957
2.0272053904277647        1.4028276587494497       -16.879023738695622
2.0148381760693748        1.4074613319237288       -16.93719334813319
2.0038726268956673        1.4113449907395914       -16.9858323531196
1.9960868646373957        1.418002835122327        -17.067794577834416
1.990350834965445         1.4257290924838513       -17.162275929516966
2.0357305209253034        1.3860924838965372       -16.671206138768685
2.0238017010062417        1.394670126621349        -16.778403909775903
2.0433096075994506        1.3685757429646344       -16.453122141697747
2.0312585169542667        1.3770486760263387       -16.559060756943765
2.0501567474606817        1.3503877069984471       -16.226332291424605
2.037943953079935         1.35860754913468         -16.32921698862674
2.0090496214309876        1.3988412504300232       -16.830441057944885
1.975840372714119         1.4498357424537545       -17.459006935110118
1.9947526598342764        1.3971467180236101       -16.80932430938842
1.991141288799146         1.4085509964423792       -16.951334823492715
1.9837381620584842        1.4167862937322737       -17.053238609862863
1.9774911410239455        1.4255683703408462       -17.16167139285508
2.0559214171422933        1.3311644504217093       -15.986253043618978
2.0424377797482465        1.3381452944194445       -16.07384938222926
2.06009109438992          1.3107005205760838       -15.730458382413545
2.0482213531084437        1.3198539039533124       -15.845220757380838
2.06254125536541          1.2889324795297388       -15.458064498233
2.04975956584963          1.2984175772309394       -15.577154639278897
2.062968374701264         1.2650125734234288       -15.158355160003572
2.051821071425193         1.2777485447794246       -15.318297807742239
1.9758713140395927        1.4639423957051365       -17.632009479152167
1.970318126636439         1.4578602741915285       -17.55773944040155
1.9630292786113637        1.4726405352277754       -17.73936060908049
1.9609173387927332        1.4622598463004295       -17.611989717084576
2.016227597168152         1.3817560776387317       -16.61758210022099
2.022217385234753         1.363302283816303        -16.387649474154816
2.0286892302145265        1.3429057921977445       -16.133240885037214
1.9999244493119201        1.3840497018031017       -16.646137130960657
1.9781960501699691        1.3829583778264845       -16.63268775926034
1.9703877442024385        1.446163105755417        -17.413939558207773
1.9781662350103968        1.4028928280274122       -16.880946125011402
1.9702713513402548        1.4137108903845468       -17.01523219006999
1.9651477559993986        1.4220417428529581       -17.11776097510632
1.9689934824710953        1.433641934547791        -17.26066716544028
2.0336939774836           1.325952363810774        -15.921411783089722
2.0384014504971812        1.3044884436202069       -15.653061261660103
2.061005632231328         1.2403115108556972       -14.848407353625925
2.0514108928011487        1.2549912092194302       -15.03298405856986
2.056559879192069         1.2153596039300198       -14.534805062338794
2.047580345583611         1.2305526073288384       -14.726141124383153
2.0374811703116333        1.2887815709268702       -15.456481578411088
2.0374964263948976        1.2660559633107393       -15.171759848137706
2.049197336023689         1.189477166376435        -14.208976148150658
2.0386723399558044        1.2058514493679873       -14.41553487859319
2.037818084676405         1.1629832406923122       -13.874862454063571
2.0304564713622626        1.1772070422867784       -14.054683962640114
1.9624386945542593        1.4514401317739858       -17.478816061157616
1.9487339355061108        1.4814425069601174       -17.84782360828875
1.9539925635874735        1.4696734272666108       -17.70317630044937
1.9532566509429445        1.459382366478224        -17.576601245107522
1.9327961580638071        1.4901243120569165       -17.954788078128473
1.9431175912686056        1.4769564852905208       -17.79287622721304
2.004968413354452         1.3637919434241463       -16.39373726628182
2.0111571761056237        1.3396515031915295       -16.092655684152334
1.9837807282673945        1.3666426559081062       -16.429400749418036
1.9642583444330965        1.371888227606866        -16.49491587933997
1.9645918168793932        1.3884889586631135       -16.701694194163
1.9602288080278583        1.4414454974238025       -17.35594774449294
1.9578085702985077        1.3990886426130964       -16.833572818671758
1.9552152917787897        1.4117064568825122       -16.989760840472496
1.9545971948173435        1.4279529426850024       -17.190126697457575
2.0179014678121865        1.3056794349638987       -15.668046557635053
2.0331579988330706        1.2467103290899384       -14.929101313309657
2.0278192899486776        1.2230578568929922       -14.63202292907005
2.014392565887502         1.27082186440468         -15.231567559720457
2.0225363644350653        1.1359809212524765       -13.533873029282919
2.0134997557707677        1.1484159333029689       -13.691460114959009
2.002121787197541         1.1094683862832087       -13.19851460907129
1.9972230527870087        1.1270106231508115       -13.420985830903078
2.0204207176245172        1.1994544193928596       -14.335166102086818
2.0084541960816225        1.1764711545505013       -14.045691270722847
1.976261869051042         1.0840135986097135       -12.876194509783087
1.9710636534964032        1.1022425315531859       -13.107689032241831
1.944238374690359         1.061072113896381        -12.585514350269202
1.944995867348565         1.0824411217639507       -12.857057509363942
1.9493921547301085        1.449038347237991        -17.44928095143119
1.9455923086159692        1.4635438439584565       -17.627800855993012
1.9155690624101647        1.4980087368652037       -18.051810542939226
1.9250812297944337        1.484792425781972        -17.889466549234296
1.933068128998303         1.4701829540047835       -17.70957636805485
1.897146711020798         1.5048343057797007       -18.13571510042553
1.9070058055581725        1.4921047711826616       -17.979476550586668
1.9848277946201078        1.344533372780102        -16.153696147007594
1.9901295403234112        1.322144977925372        -15.874003777636245
1.9633310141246443        1.3509701713947673       -16.234044300010478
1.9474234313703482        1.358751415233125        -16.33101856898551
1.9480660883687184        1.3791266768847148       -16.585028927962643
1.9434830727893175        1.436433850785729        -17.294139580813866
1.9439757848090145        1.3990014484825306       -16.83198004139533
1.9416454817386928        1.416108687985093        -17.043447559356434
1.9898481785768132        1.289483624026946        -15.465389004785811
2.0049844160851813        1.2337003946485505       -14.765800486728393
1.982896264096112         1.2587735330584644       -15.08048131426911
1.9913066533549073        1.1536111926834116       -13.757440448936535
1.9730707980619917        1.1323268711691359       -13.488554336697643
1.9867378329446839        1.192987333136427        -14.254001988045358
1.9056103603703891        1.042875983058011        -12.355006459107024
1.9169247350125211        1.069423561084385        -12.692370164467588
1.9474801480672483        1.117212193188142        -13.297657339514101
1.9238878332465927        1.0997559831568298       -13.076789198544342
1.9301035965028184        1.4526524637718696       -17.493678080726497
1.9152903158639794        1.4772397248907019       -17.796536640072592
1.91702320318573          1.4601532391723795       -17.585956253660864
1.8771940000420202        1.5097634401172855       -18.19623459800306
1.8890463969838043        1.4976543002823384       -18.04773835387415
1.8978887914088554        1.4831913031425379       -17.869828264309973
1.959849085568057         1.327895453699052        -15.945888051215375
1.9660962382023566        1.3048604203041043       -15.657862257103199
1.940096823465259         1.3341906884110226       -16.0244847885433
1.9284033794379798        1.3517874028585952       -16.243867197345278
1.9318002443438647        1.369080632751757        -16.45940455977275
1.928875627748571         1.3856682473371986       -16.665640596566817
1.9256583599872186        1.4270147923561383       -17.177542043284515
1.9279399007629014        1.4053409081689099       -16.90963419322083
1.860799702185265         1.0310480876295098       -12.205392489172466
1.876239934780324         1.0589999975167528       -12.560785102133918
1.9532199726163855        1.2807783315288865       -15.356374229973222
1.9648395655702855        1.223640404112805        -14.639384861046713
1.9455769439489534        1.251345424734047        -14.987267888913355
1.9569958196584236        1.1601999259514129       -13.840876772550633
1.9456374176235052        1.1974133787728378       -14.309525802001167
1.8911065645209986        1.0917239440041286       -12.975519266710512
1.8505969056318112        1.0824733205961032       -12.858632926455064
1.9103130769743153        1.133373119153226        -13.50229324212326
1.9063845259414498        1.4402246951209676       -17.34010000289547
1.8970083915804261        1.463771629141948        -17.630523813688203
1.8560807797630774        1.5135392633635003       -18.242552950899555
1.8699999909895348        1.5008175403775739       -18.0865772436854
1.8796329054684153        1.482907603238535        -17.866357937611813
1.933452840851068         1.305917515431917        -15.671097578436633
1.9182481426807418        1.330256178940856        -15.975231270232845
1.9086125497383126        1.3481255706964408       -16.198003631919118
1.9127450596498095        1.3705822572711792       -16.477562225634315
1.8971527147490759        1.3566297730646137       -16.303796596994736
1.9093536911831344        1.3925504778082918       -16.75043739777541
1.9093929103968847        1.4152749411954635       -17.032027561626403
1.8100517340645061        1.0284765378774603       -12.173370262336322
1.8269504467760407        1.0518514984578204       -12.470562654971362
1.9172383163239763        1.270554946600788        -15.228296471541453
1.916734810789757         1.229345202849461        -14.711116882267152
1.9181172763878365        1.1776196466418978       -14.060352393397446
1.8093915808955916        1.0849680948014497       -12.890457064409828
1.8517032730468992        1.1258754402423126       -13.407743203881463
1.8730149845159765        1.1692641167079312       -13.954986277418723
1.8928335286640425        1.4232681492151031       -17.130516645952472
1.8843013721834803        1.4413222657183775       -17.35350399842714
1.8785376270110716        1.4613625727101358       -17.600803317167298
1.8336526997696363        1.5161256002340582       -18.27422049757357
1.8472531911526482        1.5036231528840238       -18.121024682489637
1.8595554526765548        1.4877131928943097       -17.925453716208548
1.8619203105992301        1.4699398208486656       -17.70659103594178
1.9007868431018342        1.3043063876097907       -15.650924214836325
1.8895873715577312        1.332753217476131        -16.00627970935959
1.8783939399741147        1.3543316673211179       -16.275126280900263
1.88764491717594          1.3793863966715156       -16.586740533290495
1.8897516893457962        1.403359318379311        -16.88415144639367
1.7574533605457994        1.0295317390498004       -12.186442027973333
1.768811119957027         1.0520652121664118       -12.473364386898718
1.708249735908497         1.0418805195960328       -12.342951498242595
1.7329542685818324        1.0546479806889817       -12.50606269494658
1.7697894565858578        1.088466063087856        -12.93460016665638
1.668042409495788         1.0667639033750507       -12.658747190208935
1.6994494019031956        1.0736348083981884       -12.746615420272988
1.8860436953303366        1.2647248633828017       -15.155246817652612
1.8700586456953021        1.2163441015250938       -14.547729011214816
1.790328849661044         1.1257937586258449       -13.40666330517824
1.8232602426074975        1.181130148775865        -14.104440691917619
1.8738398158258227        1.4204369982448868       -17.095404896995486
1.8663377810266009        1.4417651926188761       -17.359002584838162
1.84985026501083          1.4452870265024265       -17.40254179859245
1.8100022887533826        1.5171548661067185       -18.286702017886828
1.8225229880314147        1.5045471499965628       -18.132348634976044
1.838245422659682         1.4870677422205638       -17.917505306399054
1.8375470350716931        1.461297469323594        -17.600062329492882
1.8684103000348158        1.3067057300691756       -15.680959753339181
1.8574734642649486        1.3377580355370091       -16.068668091589164
1.8613477285579136        1.3738525396416195       -16.517952085669666
1.8656872888922982        1.4001579129640467       -16.844375523230923
1.7311651730799142        1.0898995251458004       -12.952764724683716
1.7489183287587478        1.1258462641172797       -13.407146050910503
1.6346699555781405        1.093789319963919        -13.001005734516038
1.6648254221303926        1.0955201391133977       -13.02352551995403
1.6925240018699217        1.1015312145268905       -13.09971207593506
1.6071272614489664        1.1216983629383996       -13.353889035950607
1.6320530914102402        1.1222415564991155       -13.361323982461782
1.6092893432051447        1.1457402870785562       -13.658054117647081
1.8392953666624516        1.2697033279047385       -15.21785049353379
1.8238109941831646        1.2295712346630547       -14.713990890642597
1.7711976010448567        1.181393069530142        -14.10769703833707
1.792046035317923         1.2157239876080879       -14.539821181822266
1.5864388805322989        1.1513095755641187       -13.72783538570402
1.8492957246021864        1.4166492469346401       -17.048618787066143
1.8301087948775943        1.4363028880934765       -17.291662198568023
1.786173635740644         1.516750032655065        -18.281589539043875
1.7957892575328342        1.5046854508752132       -18.133853974540102
1.7643464711038663        1.514936662147037        -18.259337528832457
1.7726259461080796        1.5064558784119257       -18.15544548126226
1.8032773202317864        1.4908236869535079       -17.963654524120003
1.8174363038132784        1.465106164197705        -17.64703546131116
1.8368442885991316        1.3554652881327915       -16.289198030607984
1.8244536656030768        1.3208144859272188       -15.85726269356847
1.8061488424399756        1.2892544366235865       -15.462778987954668
1.834117799021902         1.3894961445748566       -16.71217084824662
1.7437237217398205        1.5112436557760676       -18.214115592984562
1.753934885108361         1.5023039170354557       -18.104487615507907
1.7062437118154872        1.1337087992630357       -13.506357022613965
1.7353298216996487        1.1750318179538566       -14.02752989905105
1.6571030014566204        1.1355112004899766       -13.529030366603994
1.6280827434849485        1.147274078362859        -13.677483639521686
1.5939065759212583        1.1688970135784245       -13.950126151257082
1.6100315571906942        1.1675669938756164       -13.933407753061394
1.7891545694357303        1.2568908366610911       -15.057136419477605
1.7465292473146652        1.225053544030131        -14.657118868323838
1.573145387847283         1.1817881760261637       -14.112252466903076
1.5844935815695382        1.1977109205404206       -14.313109668553722
1.7820765731204347        1.3026594628847572       -15.630586219800124
1.82186233093669          1.4111275407062804       -16.980268267423067
1.8111660857799654        1.4361917103928479       -17.29025988381765
1.7801333663316967        1.4923810911274995       -17.9827524381765
1.763438965225679         1.4928233582412254       -17.988120476300207
1.7886143205866711        1.4702484045837116       -17.71035824527758
1.7967491501639081        1.4441663753042233       -17.3887078683183
1.808278541288897         1.3601330047406774       -16.347261213092896
1.7909147524662654        1.3356191725236555       -16.041936173910464
1.8034413624206174        1.3906276965787379       -16.726133043047756
1.745842759730579         1.4888922764199628       -17.939819126330562
1.7245278434103035        1.5053328045864425       -18.141674176516453
1.7336314467421405        1.4994716712165148       -18.069720240201914
1.673374199867968         1.1790454220338842       -14.078155120589653
1.703625451270165         1.200085262887769        -14.34308880639777
1.6361347809921873        1.1746297346943948       -14.022533965290007
1.6026858308850431        1.190457229516428        -14.221813276763152
1.596186982067005         1.2133309991144128       -14.50969185313482
1.753332200260031         1.2673651582737613       -15.188523272202778
1.7153614257635013        1.248439244434555        -14.95099748235196
1.5766039504922886        1.2242530945291112       -14.647027694763997
1.564873616488092         1.2110708606664424       -14.481039932088938
1.7486610555776034        1.2943047275282353       -15.525921578343528
1.7622564087974002        1.3373885587321697       -16.063977184999146
1.7493297848632035        1.3159328775143004       -15.796282145941257
1.7930785372229672        1.4155949420591865       -17.03552869543319
1.7637359050949177        1.473165055751359        -17.74631685805384
1.772800187508643         1.4448775804686735       -17.39750903052661
1.775843369800467         1.3689889352674431       -16.45739237415486
1.7785614671594288        1.3962494883564929       -16.795814911353066
1.7390867703231974        1.469328458644248        -17.69902007663745
1.7323225942446474        1.4851802650295487       -17.894136187753332
1.7067429817819244        1.4978502230008246       -18.04986125916981
1.7158169381919335        1.4924796278961292       -17.983862991507923
1.657437140511593         1.2110945282422891       -14.481598832322048
1.6871927420083765        1.2373629599903377       -14.81184726710429
1.620437576574301         1.2230176787170703       -14.631569626546694
1.5920502092399575        1.2461907810065314       -14.922695063704326
1.6902927215721824        1.2677232378557164       -15.192924248930472
1.7210307955575108        1.2826114350946494       -15.379534497727972
1.5730785869074364        1.2539164880350135       -15.019706201176222
1.5845848861340825        1.270815993953377        -15.231670469017
1.5602048320523665        1.2386473770956328       -14.82782795562349
1.7218326754533313        1.3067885110865423       -15.682012973279617
1.7233277432588041        1.325024027735416        -15.909726185622096
1.749530691667577         1.3632786516605215       -16.386361137586203
1.7348474014567683        1.3413949128654998       -16.113855186804972
1.7638842247425135        1.4172150264578598       -17.055561221987542
1.7469699611847502        1.4447292173881403       -17.395686120880637
1.7257114448776414        1.4600512464453757       -17.584688019547727
1.7513907914044375        1.3916707983396084       -16.73905621226761
1.7341355603924151        1.380146448811653        -16.5960123842379
1.7134688860692509        1.477031228625321        -17.793886494544008
1.6896631951767407        1.4898818669198877       -17.95197403801508
1.6985244335041496        1.4847773351568319       -17.889178424435332
1.6532197567109348        1.252983376297868        -15.008017851930118
1.625762810686969         1.256428238876405        -15.051195127601705
1.6082341742245407        1.2739923836464342       -15.271501277851739
1.6693300145137182        1.2785423395591817       -15.328501804621316
1.6926323343015652        1.2937228682205912       -15.518604527090377
1.5849990068623376        1.2922263747399438       -15.499891068670184
1.5714017228415693        1.2790281057099817       -15.334602197145005
1.5579880805770643        1.2650305477004622       -15.159093272511038
1.7003762817016768        1.321935983802221        -15.871206212951497
1.7080282574152128        1.3452121103852555       -16.161438654966663
1.7238312630756876        1.3615105440638513       -16.364341094760643
1.7398584743752925        1.4166901226348778       -17.04904679183282
1.7276832503774384        1.438167845814988        -17.314613429259307
1.7089816936462654        1.4602875730325582       -17.587615434463405
1.7171404443979004        1.3788381017574283       -16.579751991248074
1.7252751388015595        1.3975891077701406       -16.812449431593663
1.6922987571389094        1.4709247920514459       -17.718685459472166
1.6727016006199003        1.481746601009895        -17.851961588215424
1.6826668959539333        1.4767066755013314       -17.789865005944417
1.6413017295656196        1.2845184942794423       -15.403388139851646
1.611811286477164         1.2920066850834442       -15.497120857652936
1.6628217033798223        1.3028433621809044       -15.632689290280725
1.6760301303784735        1.3183812291891601       -15.826843879520924
1.6044021261424617        1.308778063461668        -15.706866524589996
1.5853579515089256        1.3109162503684          -15.733586217002903
1.5695365170374131        1.3025251951150663       -15.628727612526996
1.5582232595310819        1.2896540347160281       -15.467666635495608
1.6842367479505647        1.3371119881149751       -16.06050155987543
1.688389731650145         1.3534536197829783       -16.264057562851313
1.6997715900885142        1.3672190168730667       -16.4353403385276
1.7142652162531362        1.4211471508555806       -17.104182606815073
1.709064454658938         1.439974395521223        -17.33690482014558
1.6937872828809641        1.4550618644394304       -17.523164410984446
1.7037320976146126        1.3900074656534092       -16.71840859337794
1.7020026735355487        1.4099791929938552       -16.96597027640357
1.67535713124736          1.4635369186195535       -17.627660724278112
1.6575906768103799        1.472873305494481        -17.74274229947424
1.6674562580365393        1.4693725392503751       -17.699557134994407
1.6332923731355522        1.3090429677499396       -15.710208525610172
1.6544457497753853        1.320862283743598        -15.857813040652946
1.6612248994174048        1.3365998956326153       -16.054102969916872
1.6107951897134833        1.3257893619825836       -15.919296431615226
1.588920286165278         1.3312507564268483       -15.987448353349876
1.5727751701326667        1.324974546547995        -15.909145081543016
1.5606929954279662        1.3121162824562091       -15.74858465599831
1.6685641100123139        1.353240946227259        -16.261404541635233
1.6786957161763507        1.3683189231656627       -16.448986219491587
1.6856876465137995        1.3855075906327952       -16.662554910943356
1.6917657686152097        1.4325813001132144       -17.24558252406035
1.6774297148611133        1.4483889905713807       -17.440820786858595
1.687364174209678         1.4026741526930908       -16.87547483712054
1.684624030623512         1.420040488340118        -17.09049749942142
1.6652408903453264        1.4573982354568162       -17.55197777082874
1.6443541922252567        1.4638299917225945       -17.630958126112894
1.6540229954046854        1.4620991407561883       -17.609899124910942
1.6338837783704288        1.3338579374466888       -16.019949076575475
1.6473696681010102        1.3536900755695165       -16.266990389458055
1.6110273031208404        1.3437067279908275       -16.14269293192696
1.5934733493549404        1.3482458205454666       -16.199220581729428
1.57715452353084          1.343405119787962        -16.138936130197376
1.5649866784262552        1.333003584808905        -16.009293491676537
1.6580446398916848        1.3706620718793818       -16.478123167124206
1.6678024421302247        1.3835581863304303       -16.63834817587617
1.6728745183979918        1.3981357088556225       -16.819221300580214
1.665522557193822         1.4451071976041567       -17.40030609540047
1.6725234912127902        1.4337704750914835       -17.26025320301539
1.6739771906906558        1.4149006080800466       -17.026902596911725
1.6569250339608648        1.4511086211346813       -17.474454480613698
1.644003602654316         1.449869638368382        -17.45917150103054
1.6496842518941488        1.4549487804143344       -17.52183618443977
1.620782079202938         1.3589646060250353       -16.33264208924302
1.6369931833795468        1.3738292069326072       -16.51749236295882
1.6008818462971004        1.3669390620185458       -16.431830382532834
1.583579457406239         1.3623335156511844       -16.374538798346894
1.5706594995718293        1.3525017267464807       -16.252208223287305
1.6505927648384242        1.3868942064952379       -16.67977484067784
1.6589324853272465        1.3978899183806885       -16.816176693736054
1.6623439171824856        1.4095967815655526       -16.961221260767214
1.658171998465084         1.4393670143563533       -17.329356730872544
1.66280115420627          1.4241073373586364       -17.140795861640672
1.6497855685675262        1.446935357419479        -17.42304490891058
1.618701126468478         1.37873125874233         -16.578390037088557
1.629487751057169         1.392372893744277        -16.747757657370375
1.6044612132534863        1.3824494453338252       -16.62454039673013
1.5902154775108481        1.3788305998078523       -16.57959371726737
1.5775473963372395        1.370690659016903        -16.478457239221594
1.6431237485395143        1.399771741573303        -16.839521525983784
1.6282892300074077        1.403447122905588        -16.885041420443223
1.650051654030243         1.4102521281352          -16.969314666983124
1.654294244108862         1.4186470441969132       -17.073188027998242
1.6484943046968394        1.431935380475896        -17.237641352534027
1.6131031934693882        1.3989053360466988       -16.82874776295847
1.5982397369839934        1.394745972957037        -16.777116266400977
1.5854369139848958        1.3876926023850134       -16.689633197721587
1.6346292148697967        1.414044319990398        -17.016343416508878
1.621107663378845         1.4120445567381017       -16.991557660786043
1.6414518566406866        1.4232545094211468       -17.130328747354085
1.606211176893861         1.4102044433106897       -16.968704100960338
1.594079011899393         1.4034085342766711       -16.884512948399845
1.6147745003108516        1.4224525061312494       -17.12097760691611
1.6291467607130823        1.423304302844428        -17.131715255527578
1.6027574358284828        1.4175695428771884       -17.060088666783628
1.611677664880976         1.4295791846237171       -17.210215750196777
1.6254865802528111        1.4294237757324924       -17.208503116250668
2.0117819584435286        1.4367819584435284       -17.292426612585004
2.0104408008988512        1.433994140848446        -17.25877679559302
2.022119799634336         1.423840141661637        -17.136521403160224
2.0202288613230968        1.4209770499865335       -17.101682904858418
2.0325118055985616        1.4089218411821776       -16.953323978948806
2.0300997987027447        1.4061517582582104       -16.919526451474518
2.042524761578418         1.3921111138055982       -16.74483045487213
2.039436470372457         1.389375372937843        -16.7113823684321
2.0514773892896563        1.3741497616206808       -16.521356291692477
2.047764761248654         1.3716161167770233       -16.49036023153874
2.0592269344292142        1.3550607303713222       -16.283485775775908
2.0551041221707904        1.3529366288381972       -16.25750588805669
2.0656502280414726        1.3347707739841181       -16.030246164672032
2.061228041269118         1.333131536001205        -16.01022444962604
2.0705760283536           1.313219637570848        -15.7609483192102
2.0658101492792           1.3120745843914097       -15.74702017428428
2.073793432021956         1.2902591611515044       -15.473765681719232
2.0686788062689807        1.2896561240507018       -15.466517148662602
2.075                     1.265                    -15.157412171236457
2.0695310794096655        1.2650057151924676       -15.157672616355601
2.0736855412406316        1.2386383737103561       -14.826752433490615
2.0679219462364027        1.239398890594602        -14.836352360127579
2.0696138871723324        1.2118433486074274       -14.490128003397874
2.0636802471813036        1.2134416464813331       -14.510114648241288
1.9817819584435283        1.4667819584435284       -17.66635383555687
1.979095301896285         1.4654912481078957       -17.65073823554761