% Model:              physical-model-test-basic-70天单管.mph
% Version:            COMSOL 5.2.1.152
% Date:               Nov 6 2016, 09:30
% Dimension:          2
% Nodes:              512
% Expressions:        1
% Description:        曲面
% x                       y                        Color
1.9961889276922862        1.4367819584435282       0
1.9817819584435283        1.4367819584435284       0
1.9955891603837448        1.4341517617571893       0.004491108225174608
1.9817819584435283        1.4511889276922862       0
1.9790812376574332        1.4505738434929536       0.025790629300511386
1.6382180415564715        1.4511889276922862       0
1.6382180415564715        1.4367819584435284       0
1.6408478420554917        1.4505892507268752       -0.05140583521753223
1.6238110723077135        1.4367819584435282       0
1.6245726668282123        1.433437329938512        -0.0068758058433972345
2.0179597353496095        1.4175413399764092       0.0842115962543386
2.0088314118452386        1.4306487597343471       0.034799689526288466
2.007139981305975         1.4195426250255492       0.04965164210839723
2.0002782937996573        1.426063012310318        0.02331612963048449
1.9948694396134952        1.4309955257335825       0.0017134947680941689
2.0272053904277647        1.4028276587494497       0.10254280325066482
2.0148381760693748        1.4074613319237288       0.0667715290001676
2.0038726268956673        1.4113449907395914       0.029595616306725973
1.9960868646373957        1.418002835122327        0.014831394018060962
1.990350834965445         1.4257290924838513       -0.0062571377017251245
2.0357305209253034        1.3860924838965372       0.10807158494658062
2.0238017010062417        1.394670126621349        0.07377861154174979
2.0433096075994506        1.3685757429646344       0.10811848803570637
2.0312585169542667        1.3770486760263387       0.06570566471993183
2.0501567474606817        1.3503877069984471       0.10886009113055099
2.037943953079935         1.35860754913468         0.059716458757790636
2.0090496214309876        1.3988412504300232       0.017971645123241467
1.975840372714119         1.4498357424537545       0.022007809908093208
1.9947526598342764        1.3971467180236101       0.00493210409357647
1.991141288799146         1.4085509964423792       0.006114716627580201
1.9837381620584842        1.4167862937322737       -0.00943510063333864
1.9774911410239455        1.4255683703408462       -0.011822209154543226
2.0559214171422933        1.3311644504217093       0.10901061053500893
2.0424377797482465        1.3381452944194445       0.046656491721822395
2.06009109438992          1.3107005205760838       0.10945362851590779
2.0482213531084437        1.3198539039533124       0.05034988331928184
2.06254125536541          1.2889324795297388       0.10815110615026598
2.04975956584963          1.2984175772309394       0.03735968057059075
2.062968374701264         1.2650125734234288       0.10617922990800528
2.051821071425193         1.2777485447794246       0.035929724383285115
1.9758713140395927        1.4639423957051365       0.02871726004968744
1.970318126636439         1.4578602741915285       0.016681319130828157
1.9630292786113637        1.4726405352277754       0.022831594367171127
1.9609173387927332        1.4622598463004295       0.0022262068863480363
2.016227597168152         1.3817560776387317       0.0014001247767258757
2.022217385234753         1.363302283816303        -0.015082180116662564
2.0286892302145265        1.3429057921977445       -0.020769961814463063
1.9999244493119201        1.3840497018031017       0.002142915566527882
1.9781960501699691        1.3829583778264845       0.015941140920048866
1.9703877442024385        1.446163105755417        0.004285246968487655
1.9781662350103968        1.4028928280274122       -0.001789446603695549
1.9702713513402548        1.4137108903845468       -0.016739380547049407
1.9651477559993986        1.4220417428529581       -0.018673025725036086
1.9689934824710953        1.433641934547791        -4.2433839514142367E-4
2.0336939774836           1.325952363810774        -0.01831607427874925
2.0384014504971812        1.3044884436202069       -0.018849645249098483
2.061005632231328         1.2403115108556972       0.10190633900653193
2.0514108928011487        1.2549912092194302       0.03319546889976093
2.056559879192069         1.2153596039300198       0.09630521477013575
2.047580345583611         1.2305526073288384       0.028091587378961492
2.0374811703116333        1.2887815709268702       -0.01949445578297328
2.0374964263948976        1.2660559633107393       -0.02061955506308985
2.049197336023689         1.189477166376435        0.09066575473300753
2.0386723399558044        1.2058514493679873       0.0148415030037011
2.037818084676405         1.1629832406923122       0.08030187873245771
2.0304564713622626        1.1772070422867784       0.026154712680706682
1.9624386945542593        1.4514401317739858       -0.005754426431319963
1.9487339355061108        1.4814425069601174       0.02295275228143505
1.9539925635874735        1.4696734272666108       0.006362366525864266
1.9532566509429445        1.459382366478224        -0.005932599073466427
1.9327961580638071        1.4901243120569165       0.021391523950628162
1.9431175912686056        1.4769564852905208       0.008511609481220997
2.004968413354452         1.3637919434241463       -0.0076165662184480955
2.0111571761056237        1.3396515031915295       -0.016772648370168942
1.9837807282673945        1.3666426559081062       0.011620339691599481
1.9642583444330965        1.371888227606866        0.01604864375613729
1.9645918168793932        1.3884889586631135       0.0035348786586203588
1.9602288080278583        1.4414454974238025       -0.0018977389813210107
1.9578085702985077        1.3990886426130964       -0.01578066562465313
1.9552152917787897        1.4117064568825122       -0.02849672928749646
1.9545971948173435        1.4279529426850024       -0.008292348318211573
2.0179014678121865        1.3056794349638987       -0.012314863748587536
2.0331579988330706        1.2467103290899384       -0.02150113578508314
2.0278192899486776        1.2230578568929922       -0.02240290615628715
2.014392565887502         1.27082186440468         -0.003896937423150338
2.0225363644350653        1.1359809212524765       0.073064600715369
2.0134997557707677        1.1484159333029689       0.025915274962630696
2.002121787197541         1.1094683862832087       0.06231081518902992
1.9972230527870087        1.1270106231508115       0.025988599857563386
2.0204207176245172        1.1994544193928596       -0.019072451112406127
2.0084541960816225        1.1764711545505013       -0.015137039306452115
1.976261869051042         1.0840135986097135       0.0540597028709507
1.9710636534964032        1.1022425315531859       0.023999040834319144
1.944238374690359         1.061072113896381        0.04431953383501595
1.944995867348565         1.0824411217639507       0.023074608741415068
1.9493921547301085        1.449038347237991        -0.004980922736164788
1.9455923086159692        1.4635438439584565       -0.00162381706057932
1.9155690624101647        1.4980087368652037       0.018571074765046824
1.9250812297944337        1.484792425781972        0.007791844235313099
1.933068128998303         1.4701829540047835       0.0017346090883972305
1.897146711020798         1.5048343057797007       0.014449281912938355
1.9070058055581725        1.4921047711826616       0.0070279717622647305
1.9848277946201078        1.344533372780102        0.001565980632423227
1.9901295403234112        1.322144977925372        -0.0019583190890744913
1.9633310141246443        1.3509701713947673       0.013676221965241637
1.9474234313703482        1.358751415233125        0.0070294875319817105
1.9480660883687184        1.3791266768847148       -0.011566326271929493
1.9434830727893175        1.436433850785729        0.0017608038510511452
1.9439757848090145        1.3990014484825306       -0.03371404336113759
1.9416454817386928        1.416108687985093        -0.020794544642422794
1.9898481785768132        1.289483624026946        0.003000599747454926
2.0049844160851813        1.2337003946485505       -0.004552863210166132
1.982896264096112         1.2587735330584644       0.002786334570766181
1.9913066533549073        1.1536111926834116       -0.011207428271639354
1.9730707980619917        1.1323268711691359       -0.004743227021617925
1.9867378329446839        1.192987333136427        -0.01054511089436662
1.9056103603703891        1.042875983058011        0.03199427265588883
1.9169247350125211        1.069423561084385        0.019717794416970125
1.9474801480672483        1.117212193188142        -0.0036201617689616897
1.9238878332465927        1.0997559831568298       0.001197573453822308
1.9301035965028184        1.4526524637718696       0.00892021531171372
1.9152903158639794        1.4772397248907019       0.00227060203956916
1.91702320318573          1.4601532391723795       0.008335557076853413
1.8771940000420202        1.5097634401172855       0.00939614319368871
1.8890463969838043        1.4976543002823384       0.005361385424745179
1.8978887914088554        1.4831913031425379       0.0037230544821045416
1.959849085568057         1.327895453699052        0.004448765385859679
1.9660962382023566        1.3048604203041043       -1.3177657611675728E-4
1.940096823465259         1.3341906884110226       0.007663602615391771
1.9284033794379798        1.3517874028585952       -0.005603712328266679
1.9318002443438647        1.369080632751757        -0.02080207674165951
1.928875627748571         1.3856682473371986       -0.03495667949356909
1.9256583599872186        1.4270147923561383       4.232539091017182E-4
1.9279399007629014        1.4053409081689099       -0.025716554781487922
1.860799702185265         1.0310480876295098       0.018678201189853798
1.876239934780324         1.0589999975167528       0.013303750796928618
1.9532199726163855        1.2807783315288865       -0.0010335785642052826
1.9648395655702855        1.223640404112805        0.005422746338369938
1.9455769439489534        1.251345424734047        -0.0036708495906380206
1.9569958196584236        1.1601999259514129       -0.008921274651324545
1.9456374176235052        1.1974133787728378       0.0022996097160371716
1.8911065645209986        1.0917239440041286       -7.247930094901115E-4
1.8505969056318112        1.0824733205961032       -0.00215540096669709
1.9103130769743153        1.133373119153226        -0.004791256764692327
1.9063845259414498        1.4402246951209676       0.01581865755825242
1.8970083915804261        1.463771629141948        0.0047391074061450275
1.8560807797630774        1.5135392633635003       0.0050744643950633595
1.8699999909895348        1.5008175403775739       0.0033894534257704234
1.8796329054684153        1.482907603238535        0.00112473491351314
1.933452840851068         1.305917515431917        9.579520864331331E-4
1.9182481426807418        1.330256178940856        4.14422653998833E-4
1.9086125497383126        1.3481255706964408       -0.011453662815478959
1.9127450596498095        1.3705822572711792       -0.026963090742817088
1.8971527147490759        1.3566297730646137       -0.011106639104890953
1.9093536911831344        1.3925504778082918       -0.0178885093465149
1.9093929103968847        1.4152749411954635       6.118018318535651E-4
1.8100517340645061        1.0284765378774603       0.0022575168847924396
1.8269504467760407        1.0518514984578204       0.0040168583883660675
1.9172383163239763        1.270554946600788        -0.003299717204760827
1.916734810789757         1.229345202849461        0.00950380424018833
1.9181172763878365        1.1776196466418978       -0.0017883720524248129
1.8093915808955916        1.0849680948014497       -0.003833908333114269
1.8517032730468992        1.1258754402423126       -0.005146318536789708
1.8730149845159765        1.1692641167079312       -0.001385518286257298
1.8928335286640425        1.4232681492151031       0.014155480195866894
1.8843013721834803        1.4413222657183775       0.012352647914036263
1.8785376270110716        1.4613625727101358       0.002292811518547232
1.8336526997696363        1.5161256002340582       5.770985556856849E-4
1.8472531911526482        1.5036231528840238       0.0010619643895297991
1.8595554526765548        1.4877131928943097       0.0019126028489277996
1.8619203105992301        1.4699398208486656       -0.0016631963152954584
1.9007868431018342        1.3043063876097907       0.005146537774091492
1.8895873715577312        1.332753217476131        -0.005043399473742803
1.8783939399741147        1.3543316673211179       0.002607109233304382
1.88764491717594          1.3793863966715156       0.0026411318304216187
1.8897516893457962        1.403359318379311        0.010020863138454746
1.7574533605457994        1.0295317390498004       -0.01818835259388717
1.768811119957027         1.0520652121664118       -0.005378704449094002
1.708249735908497         1.0418805195960328       -0.04368167050124632
1.7329542685818324        1.0546479806889817       -0.01260203951624326
1.7697894565858578        1.088466063087856        -0.0011121486751153665
1.668042409495788         1.0667639033750507       -0.05497089500673924
1.6994494019031956        1.0736348083981884       -0.00983254626074654
1.8860436953303366        1.2647248633828017       -0.007949297116024446
1.8700586456953021        1.2163441015250938       0.009407709079389523
1.790328849661044         1.1257937586258449       -0.002380717322029269
1.8232602426074975        1.181130148775865        7.951934341020701E-4
1.8738398158258227        1.4204369982448868       0.013005430928438906
1.8663377810266009        1.4417651926188761       0.001388684608159636
1.84985026501083          1.4452870265024265       -0.004350752172060945
1.8100022887533826        1.5171548661067185       -0.002626490395076911
1.8225229880314147        1.5045471499965628       -0.0026918027677061275
1.838245422659682         1.4870677422205638       9.248084120025838E-4
1.8375470350716931        1.461297469323594        -0.0030257316522290228
1.8684103000348158        1.3067057300691756       9.268339176484035E-4
1.8574734642649486        1.3377580355370091       -0.007119171905169989
1.8613477285579136        1.3738525396416195       0.009624840734783376
1.8656872888922982        1.4001579129640467       0.013585595027462071
1.7311651730799142        1.0898995251458004       -1.4306126632276058E-4
1.7489183287587478        1.1258462641172797       9.987730318756485E-4
1.6346699555781405        1.093789319963919        -0.064044748316007
1.6648254221303926        1.0955201391133977       -0.010315613043812814
1.6925240018699217        1.1015312145268905       -4.50318120130872E-4
1.6071272614489664        1.1216983629383996       -0.07804780335847535
1.6320530914102402        1.1222415564991155       -0.011508491445659434
1.6092893432051447        1.1457402870785562       -0.014783856404078642
1.8392953666624516        1.2697033279047385       0.0032502551024014875
1.8238109941831646        1.2295712346630547       0.007168925930866375
1.7711976010448567        1.181393069530142        0.009958914159396594
1.792046035317923         1.2157239876080879       -0.00798026644494342
1.5864388805322989        1.1513095755641187       -0.08746468002991314
1.8492957246021864        1.4166492469346401       2.8317823795784985E-4
1.8301087948775943        1.4363028880934765       -0.006487079651103436
1.786173635740644         1.516750032655065        -0.0021815841163855326
1.7957892575328342        1.5046854508752132       -0.004996539700050786
1.7643464711038663        1.514936662147037        -0.002022083647261247
1.7726259461080796        1.5064558784119257       -0.0031132536858506405
1.8032773202317864        1.4908236869535079       -0.0041908159579601145
1.8174363038132784        1.465106164197705        0.00546781387370097
1.8368442885991316        1.3554652881327915       -0.009417035308491488
1.8244536656030768        1.3208144859272188       0.004185110500973866
1.8061488424399756        1.2892544366235865       3.326457331224669E-5
1.834117799021902         1.3894961445748566       -0.005841140818203449
1.7437237217398205        1.5112436557760676       -0.003106901166448554
1.753934885108361         1.5023039170354557       -0.0019618894501426502
1.7062437118154872        1.1337087992630357       0.002077487126990868
1.7353298216996487        1.1750318179538566       0.005221363860735114
1.6571030014566204        1.1355112004899766       -2.590402636823605E-4
1.6280827434849485        1.147274078362859        -0.004272788188914066
1.5939065759212583        1.1688970135784245       -0.014616766069559374
1.6100315571906942        1.1675669938756164       -0.0024030492462520084
1.7891545694357303        1.2568908366610911       5.041803062859231E-4
1.7465292473146652        1.225053544030131        -0.001779219413469389
1.573145387847283         1.1817881760261637       -0.0812144115193428
1.5844935815695382        1.1977109205404206       -0.002130532732943924
1.7820765731204347        1.3026594628847572       0.0012498634796341496
1.82186233093669          1.4111275407062804       -0.0065472740558584755
1.8111660857799654        1.4361917103928479       -0.0021930950804184665
1.7801333663316967        1.4923810911274995       -0.0037893984189585586
1.763438965225679         1.4928233582412254       -0.0024087994019106004
1.7886143205866711        1.4702484045837116       9.577364491833214E-5
1.7967491501639081        1.4441663753042233       0.0025524307605311694
1.808278541288897         1.3601330047406774       -0.0064455297915475525
1.7909147524662654        1.3356191725236555       -0.004135126892138994
1.8034413624206174        1.3906276965787379       -0.0056666257407901426
1.745842759730579         1.4888922764199628       -0.001042039372814815
1.7245278434103035        1.5053328045864425       -0.004996820314239822
1.7336314467421405        1.4994716712165148       -0.0020192975271890712
1.673374199867968         1.1790454220338842       0.00200597797573715
1.703625451270165         1.200085262887769        0.004448117308006756
1.6361347809921873        1.1746297346943948       -9.700109483152939E-4
1.6026858308850431        1.190457229516428        -0.0016040348735659792
1.596186982067005         1.2133309991144128       0.0021286419791581297
1.753332200260031         1.2673651582737613       -0.0037918917280600037
1.7153614257635013        1.248439244434555        -0.003505818985850216
1.5766039504922886        1.2242530945291112       -0.0037274320754440205
1.564873616488092         1.2110708606664424       -0.07074416252999399
1.7486610555776034        1.2943047275282353       7.610474367472924E-4
1.7622564087974002        1.3373885587321697       -3.687912217949574E-4
1.7493297848632035        1.3159328775143004       -0.0010529257272285377
1.7930785372229672        1.4155949420591865       5.956551486521014E-4
1.7637359050949177        1.473165055751359        -0.002267856592944792
1.772800187508643         1.4448775804686735       0.0028053691736762754
1.775843369800467         1.3689889352674431       0.006162603675153663
1.7785614671594288        1.3962494883564929       0.001411041970175597
1.7390867703231974        1.469328458644248        -2.433894176134413E-4
1.7323225942446474        1.4851802650295487       -1.902408675816851E-5
1.7067429817819244        1.4978502230008246       -0.006894177000299051
1.7158169381919335        1.4924796278961292       -0.0023017222855452584
1.657437140511593         1.2110945282422891       -0.0035574018593974997
1.6871927420083765        1.2373629599903377       -1.9578697495341567E-4
1.620437576574301         1.2230176787170703       0.0010539878375277186
1.5920502092399575        1.2461907810065314       5.666406100876311E-4
1.6902927215721824        1.2677232378557164       -8.58077638252472E-5
1.7210307955575108        1.2826114350946494       -0.003093656962052657
1.5730785869074364        1.2539164880350135       -8.503394797176222E-4
1.5845848861340825        1.270815993953377        4.5077408005263637E-4
1.5602048320523665        1.2386473770956328       -0.06076720927888205
1.7218326754533313        1.3067885110865423       8.7874160735058E-5
1.7233277432588041        1.325024027735416        2.1942815059603098E-4
1.749530691667577         1.3632786516605215       0.005133925396222692
1.7348474014567683        1.3413949128654998       8.810246596178882E-4
1.7638842247425135        1.4172150264578598       -0.0010698492632398341
1.7469699611847502        1.4447292173881403       -8.211801535979204E-4
1.7257114448776414        1.4600512464453757       -0.0012204416323674484
1.7513907914044375        1.3916707983396084       -0.0021461198994507918
1.7341355603924151        1.380146448811653        3.5581030288785653E-4
1.7134688860692509        1.477031228625321        -7.920396044298202E-4
1.6896631951767407        1.4898818669198877       -0.00968685436561834
1.6985244335041496        1.4847773351568319       -0.0027933071768998677
1.6532197567109348        1.252983376297868        0.002237356378425076
1.625762810686969         1.256428238876405        0.0012928213863300504
1.6082341742245407        1.2739923836464342       0.0012379247497332916
1.6693300145137182        1.2785423395591817       -2.8457781228226174E-4
1.6926323343015652        1.2937228682205912       -0.0010067459247324014
1.5849990068623376        1.2922263747399438       -6.592513057734338E-4
1.5714017228415693        1.2790281057099817       1.9248456380793752E-4
1.5579880805770643        1.2650305477004622       -0.057113219124682056
1.7003762817016768        1.321935983802221        -0.0016544849225798256
1.7080282574152128        1.3452121103852555       -8.968890471933758E-4
1.7238312630756876        1.3615105440638513       -9.364879213034492E-4
1.7398584743752925        1.4166901226348778       -0.0022778648645466397
1.7276832503774384        1.438167845814988        1.419831102406159E-4
1.7089816936462654        1.4602875730325582       -5.876450169698497E-5
1.7171404443979004        1.3788381017574283       -1.6363568395212383E-4
1.7252751388015595        1.3975891077701406       -0.0010323197220378812
1.6922987571389094        1.4709247920514459       -7.806296383361214E-4
1.6727016006199003        1.481746601009895        -0.014939697654459
1.6826668959539333        1.4767066755013314       -0.0033224852304876624
1.6413017295656196        1.2845184942794423       -9.074232100224203E-5
1.611811286477164         1.2920066850834442       -3.2767036263816815E-4
1.6628217033798223        1.3028433621809044       -0.0011583580371353588
1.6760301303784735        1.3183812291891601       -3.176931842110605E-4
1.6044021261424617        1.308778063461668        2.8329053125412414E-4
1.5853579515089256        1.3109162503684          -0.0011266038419977542
1.5695365170374131        1.3025251951150663       -0.007005683693785597
1.5582232595310819        1.2896540347160281       -0.056045061306899256
1.6842367479505647        1.3371119881149751       -0.0020810385006161686
1.688389731650145         1.3534536197829783       -0.001189509290303729
1.6997715900885142        1.3672190168730667       -0.0010588397783081402
1.7142652162531362        1.4211471508555806       1.1262433810258882E-4
1.709064454658938         1.439974395521223        3.3224730053264367E-4
1.6937872828809641        1.4550618644394304       3.7276287737308386E-4
1.7037320976146126        1.3900074656534092       0.002211569646068046
1.7020026735355487        1.4099791929938552       2.585851280041815E-4
1.67535713124736          1.4635369186195535       -8.339744024541057E-4
1.6575906768103799        1.472873305494481        -0.020030597363982182
1.6674562580365393        1.4693725392503751       -0.006256986924858971
1.6332923731355522        1.3090429677499396       -6.968708969435787E-4
1.6544457497753853        1.320862283743598        -7.040125581540619E-4
1.6612248994174048        1.3365998956326153       -2.5927209698992977E-4
1.6107951897134833        1.3257893619825836       -1.599041430119564E-5
1.588920286165278         1.3312507564268483       2.4471849759283147E-4
1.5727751701326667        1.324974546547995        -0.004398146042194962
1.5606929954279662        1.3121162824562091       -0.055629686160067714
1.6685641100123139        1.353240946227259        -1.7407600666969E-4
1.6786957161763507        1.3683189231656627       -2.8013586560647136E-4
1.6856876465137995        1.3855075906327952       7.363970707593669E-4
1.6917657686152097        1.4325813001132144       -1.759940601556026E-4
1.6774297148611133        1.4483889905713807       3.9196462873553175E-4
1.687364174209678         1.4026741526930908       -2.2176979441917063E-4
1.684624030623512         1.420040488340118        -9.498981657018229E-4
1.6652408903453264        1.4573982354568162       -0.0011195577297127314
1.6443541922252567        1.4638299917225945       -0.034403972003019034
1.6540229954046854        1.4620991407561883       -0.01890176073739763
1.6338837783704288        1.3338579374466888       -5.475196622086073E-4
1.6473696681010102        1.3536900755695165       -0.002040913414550255
1.6110273031208404        1.3437067279908275       -0.001556785296031613
1.5934733493549404        1.3482458205454666       -8.749137038945653E-4
1.57715452353084          1.343405119787962        -0.004942831531968444
1.5649866784262552        1.333003584808905        -0.053912009412297346
1.6580446398916848        1.3706620718793818       -6.421622409813069E-4
1.6678024421302247        1.3835581863304303       -4.531451549924399E-4
1.6728745183979918        1.3981357088556225       -0.0013698358794649278
1.665522557193822         1.4451071976041567       -2.2929482890319525E-4
1.6725234912127902        1.4337704750914835       4.4356643713110595E-4
1.6739771906906558        1.4149006080800466       -0.001310436312694424
1.6569250339608648        1.4511086211346813       -0.004683882740727342
1.644003602654316         1.449869638368382        -0.046460465303985614
1.6496842518941488        1.4549487804143344       -0.029262345762551135
1.620782079202938         1.3589646060250353       -0.0011333421934232588
1.6369931833795468        1.3738292069326072       -0.0013204211016764119
1.6008818462971004        1.3669390620185458       1.7427481998363994E-4
1.583579457406239         1.3623335156511844       -0.006879931755265475
1.5706594995718293        1.3525017267464807       -0.05182202370553213
1.6505927648384242        1.3868942064952379       -8.468613217254447E-6
1.6589324853272465        1.3978899183806885       -7.120202141986251E-4
1.6623439171824856        1.4095967815655526       -2.1915894222403868E-4
1.658171998465084         1.4393670143563533       -0.005225292245511965
1.66280115420627          1.4241073373586364       0.006346789420936254
1.6497855685675262        1.446935357419479        -0.040798785216076834
1.618701126468478         1.37873125874233         -2.852429774942264E-4
1.629487751057169         1.392372893744277        7.541477073166474E-4
1.6044612132534863        1.3824494453338252       -0.003793298832187874
1.5902154775108481        1.3788305998078523       -0.012449143171247285
1.5775473963372395        1.370690659016903        -0.0496851641133548
1.6431237485395143        1.399771741573303        0.0027911006419043226
1.6282892300074077        1.403447122905588        -0.002432623644461178
1.650051654030243         1.4102521281352          4.683692727185627E-4
1.654294244108862         1.4186470441969132       -0.0027002428249150914
1.6484943046968394        1.431935380475896        -0.03273893663815392
1.6131031934693882        1.3989053360466988       -0.00553269960870476
1.5982397369839934        1.394745972957037        -0.016004613096962175
1.5854369139848958        1.3876926023850134       -0.04562620331834336
1.6346292148697967        1.414044319990398        -0.008787136653438913
1.621107663378845         1.4120445567381017       -0.006361267118302147
1.6414518566406866        1.4232545094211468       -0.019334157981895497
1.606211176893861         1.4102044433106897       -0.015770770267741038
1.594079011899393         1.4034085342766711       -0.03793610578005754
1.6147745003108516        1.4224525061312494       -0.0105393450678039
1.6291467607130823        1.423304302844428        -0.011400115359043998
1.6027574358284828        1.4175695428771884       -0.023358929479713048
1.611677664880976         1.4295791846237171       -0.005762418486879684
1.6254865802528111        1.4294237757324924       -0.010637646414572044
2.0117819584435286        1.4367819584435284       0
2.0104408008988512        1.433994140848446        0.016340977831679246
2.022119799634336         1.423840141661637        0
2.0202288613230968        1.4209770499865335       0.06630599707636307
2.0325118055985616        1.4089218411821776       0
2.0300997987027447        1.4061517582582104       0.09546174649680642
2.042524761578418         1.3921111138055982       0
2.039436470372457         1.389375372937843        0.11276496401299109
2.0514773892896563        1.3741497616206808       0
2.047764761248654         1.3716161167770233       0.12356239475536568
2.0592269344292142        1.3550607303713222       0
2.0551041221707904        1.3529366288381972       0.13054225211890305
2.0656502280414726        1.3347707739841181       0
2.061228041269118         1.333131536001205        0.13626898995268766
2.0705760283536           1.313219637570848        0
2.0658101492792           1.3120745843914097       0.14109526256699537
2.073793432021956         1.2902591611515044       0
2.0686788062689807        1.2896561240507018       0.14440517722168383
2.075                     1.265                    0