% Model:              physical-model-test-0514-0521.mph
% Version:            COMSOL 5.2.1.152
% Date:               Nov 8 2016, 15:26
% Dimension:          2
% Nodes:              2827
% Expressions:        1
% Description:        曲面
% x                       y                        Color
1.6338206791613388        1.4367819584435282       0
1.6338899069045298        1.435801198153968        -0.02988737644944642
1.6382180415564715        1.4367819584435284       0
1.6382180415564715        1.441179320838661        0
1.6392112977996534        1.4411077768011324       -0.0037958588936975904
1.9817819584435283        1.441179320838661        0
1.9807904643972833        1.4411093342998533       -0.0042091257268732545
1.9817819584435283        1.4367819584435284       0
1.986179320838661         1.4367819584435284       0
1.9861065567055494        1.4357717634365135       -0.05336195736688484
1.6199395308044817        1.4342851079403958       -0.015203764190643145
1.6148818079971388        1.4339497035986997       -0.013399064368243147
1.6162718609090032        1.4317940089286152       -0.03548975027534763
1.6108614965970294        1.4310936189184382       -0.030090855558711414
1.6096277886244477        1.4337726019508095       -0.009867243364226078
1.6060729647275962        1.4298776601967185       -0.02427401402251008
1.6248292428131115        1.434461072610373        -0.01918666703794766
1.6213402742097383        1.4322642404698103       -0.042170341059720416
1.620137302936764         1.4290836071059625       -0.06895610045124544
1.5864669985976938        1.4022053585877325       -0.06698717567988312
1.5836342013926048        1.3974237023893652       -0.0678619036233889
1.5876031695579371        1.3994450332777502       -0.06927712562310832
1.590446534953525         1.4042315750414773       -0.06766225339924285
1.5893749985613805        1.4068431656679885       -0.06529154376299291
1.593419696230727         1.4087633811269282       -0.06556092927473954
1.5923602205970901        1.4113540752577138       -0.06250096588357136
1.6024507561524088        1.4255621856945222       -0.03802455779443019
1.6067760433819747        1.4271126853043492       -0.04189039704806153
1.6142262416638264        1.4283319654659203       -0.058161629177735714
1.6102962238432479        1.4261617402663764       -0.05628584738050414
1.598935768009665         1.4207554897197712       -0.049628116085060354
1.6032840376998363        1.4229647733943382       -0.050167836291135075
1.5965647782929657        1.4134149698565408       -0.06244247557924367
1.5955410379795838        1.4159503751022096       -0.05783050759616483
1.5999207883588598        1.418219907316899        -0.05802545622286626
1.6262029477904374        1.4325468140494038       -0.0524861401587837
1.6295084431219258        1.4345754284410708       -0.026841355655342503
1.6250789738178464        1.429474035997543        -0.07834229233380485
1.5808716212394511        1.3925018998794116       -0.0681091135273067
1.5848227819529959        1.3947237834965929       -0.07007944695425715
1.5781786979370347        1.3874395938534854       -0.06777901247215831
1.5821418226364807        1.3897412645625011       -0.07030296798699204
1.5893311180486591        1.395362439159417        -0.06436649107904224
1.6174660096242643        1.4242609753758795       -0.07786625811777825
1.6230245768806655        1.4250208039264072       -0.08554338500775459
1.592018890442633         1.3998393416785095       -0.06438900468830498
1.5944068261844273        1.4037711337796093       -0.06418077879504519
1.5979742684252862        1.4092437581843598       -0.06344971499611766
1.6069376611216526        1.4220202788570602       -0.06192041545190952
1.6120749975519795        1.4229559749323488       -0.06989085928747063
1.604564648474372         1.4190681683622601       -0.06257824083010709
1.6013021499249782        1.414216117578914        -0.06304586107459216
1.6296077809733678        1.4297061750006475       -0.08676002088996455
1.6308128931093036        1.432753551985198        -0.06517835552383032
1.6339729801963592        1.4346242858064957       -0.04835103226702266
1.6276472969536226        1.42577083297879         -0.0903654153488536
1.5755596283519713        1.3822323122584466       -0.0669054877873633
1.5795547558263017        1.3846020457538553       -0.06984741495506731
1.5730171001905497        1.3768760946030647       -0.06569951316927411
1.5770488483761034        1.3794852771255577       -0.06909995932901364
1.5705526819678397        1.3713684714140217       -0.06404999075806797
1.5745071947066134        1.3739758191947564       -0.06762255802595367
1.568170607577794         1.3657042143919529       -0.06208248486792073
1.5721480091445954        1.368536964328318        -0.0659258638017735
1.5658792493214972        1.3598752507616692       -0.059861739205816555
1.5698253483168145        1.3627600430663414       -0.0636724938336989
1.563690453339641         1.3538739977035372       -0.057120169476861216
1.5676736914139708        1.3568205021957436       -0.060954212420707816
1.6406657090330021        1.4550733321950498       8.569109399828694E-4
1.6404993890088657        1.450175818676756        7.32988800487651E-4
1.642637933848691         1.4535837708205468       0.0015451237319214284
1.5869623840209879        1.3909940950822668       -0.06402330562792467
1.583948690875089         1.3850283393380434       -0.06315261901458803
1.594507357462825         1.3946755532337545       -0.06504391781632418
1.592468846644245         1.3904015736049127       -0.06405342635721738
1.6151585195903548        1.4196896822367926       -0.07701866206837557
1.6208016071439608        1.4191937482033399       -0.08445805853379247
1.6256117059214952        1.4202209576692961       -0.08950789325854926
1.5975401155705944        1.399204859471554        -0.06594779235209138
1.6004406282994288        1.4043823911160709       -0.06691413555123717
1.6034935182501822        1.408069252580448        -0.0679731429103528
1.6051758929316227        1.40271812755425         -0.07167758787163837
1.6098225514541977        1.4175571153834463       -0.07066109742281672
1.606579615523378         1.4127834716011427       -0.06915537522477211
1.631510031631808         1.426169581440474        -0.09280753561700232
1.633320942858028         1.4297469198199324       -0.09218477835740742
1.6351948170340256        1.4327776207601794       -0.0801828623794676
1.6299400927419216        1.4211283424660701       -0.0928573248624227
1.5819458266832005        1.3808066356651585       -0.06205632174333573
1.5793456500545167        1.3757000058604478       -0.06099676908285891
1.5770239727165782        1.3701310531899578       -0.059120123072269805
1.5744139809247284        1.363503152228686        -0.05650267238860086
1.5616145957667955        1.347692066604622        -0.054294106400084384
1.5655618237504128        1.3507495966989749       -0.05815906789191715
1.5596593831562588        1.341320893804211        -0.05115633074674765
1.5635496070636812        1.3444265497704144       -0.0548723484592469
1.5726095975085375        1.35905892402384         -0.05497552205413609
1.5703822212414742        1.3520461448303263       -0.05168002263555722
1.5578334591734642        1.3347537805396013       -0.0477024939855858
1.5561455598851308        1.3279812030140719       -0.043985608761282796
1.5601304453048026        1.3317407897574722       -0.047512610231973416
1.5618097486800864        1.3382347916697332       -0.05138758784553051
1.6404032052914714        1.4410219239560982       -0.0017059548755681442
1.6404248532103443        1.4454872574691047       -0.0025769948265925696
1.642427461939061         1.4487121083336507       6.1359463511452E-4
1.6424476725488342        1.44387922943493         -0.005413022689524989
1.6432075065959173        1.4585281064101274       -0.0037889142363346936
1.641048458428582         1.4601189889554678       -0.0032086417080570947
1.6441287240239484        1.46388574733431         -0.011618618322249115
1.6413120175231082        1.4653327103133675       -0.020233183566628683
1.6451836076493307        1.468851956852478        -0.01599484220195398
1.6455382537170415        1.4544141650104248       0.0023415210327576166
1.6453618117900601        1.4498735662404554       8.176141162830446E-4
1.5899003352908219        1.38580321737517         -0.06284148269987079
1.5875156724422808        1.3804254878094777       -0.06090011206999681
1.5999578788403699        1.3944722792559807       -0.06839132398348674
1.5954922819699233        1.3855348773527623       -0.06470031447100844
1.5995243160098833        1.3893687499095764       -0.0675679662228686
1.628080924938563         1.415035271167593        -0.09374615106301419
1.6168782464188065        1.4148784127156668       -0.08106704912505346
1.6227995745869392        1.4143927430058247       -0.08864198579959431
1.6034780805045428        1.3972586693029303       -0.07092932142904664
1.6080581762247788        1.4001188640186506       -0.0745527953574591
1.610138241419972         1.4054067576526066       -0.07625989209919888
1.6130974687329838        1.4109591339968437       -0.077648342155732
1.6341856871944238        1.422128995245356        -0.09441367225270904
1.6392002637829461        1.432985127724436        -0.07678286941309966
1.635884356759488         1.4261498369657273       -0.0915371960221753
1.6371917238757936        1.4301336751918212       -0.08952901027875891
1.6327553989061054        1.4167231059910579       -0.09665817814809098
1.6481362202211367        1.4681801015045952       0.0017855835042256158
1.649442609661823         1.4724645655554556       0.006702384495367521
1.6519146873560238        1.471562923551262        0.021585161812577077
1.654145286913338         1.4759499512853211       0.028890695756995273
1.585435688580908         1.3753188244576224       -0.05911891047963964
1.5827683913158512        1.370439891698078        -0.056927184024830484
1.5805124405568303        1.3652199063861175       -0.05465609989791225
1.57887794630468          1.358957580323988        -0.051522554620206544
1.5686869218358244        1.3469149668929015       -0.04917459617191817
1.5666671715873604        1.3399536631093703       -0.04580059413699388
1.576823327158156         1.3536801012371236       -0.048772296627395545
1.5747817805538993        1.3481289301189727       -0.045920055088138075
1.5546066462058346        1.3209932031835747       -0.03987762671518856
1.5585969742236434        1.3248994087447816       -0.043263816731593845
1.5532307615700784        1.3137811745014123       -0.03548657929488677
1.557230003213409         1.3179730017991467       -0.038800992443796985
1.563801284173224         1.3281471622321839       -0.0394281797824081
1.5652622428028042        1.3344744648126246       -0.042737484053352266
1.5520322242475972        1.306333100290561        -0.030708125219778636
1.5560438386727262        1.3107159142298093       -0.03404250890726648
1.5510279779087144        1.2986395918303122       -0.02545940899323259
1.5550071530103071        1.3032612073660599       -0.029089596504760933
1.642061723984497         1.4394533871140103       -0.003904935107866246
1.6451963352656318        1.445502829733057        -0.0066877255719752894
1.6452645166055468        1.441852946527939        -0.017310819474450092
1.6470069374174465        1.4592999334859584       0.001222530254215041
1.6484326623323144        1.4638134387341748       0.003890719322989268
1.6499427615791307        1.4563036102031064       -4.190509179464078E-4
1.6490250713928376        1.4473002484840696       -0.013115599970075068
1.6495186726521474        1.452246077326939        -0.003869430867534256
1.5906142209334786        1.3758415286032921       -0.059776284050992626
1.6320246711089088        1.412163968274251        -0.09668808101857818
1.6282979290728947        1.4099823163178882       -0.09365241422643804
1.594855843382381         1.379634519731584        -0.06229175371882717
1.6051943450060489        1.3919130835546063       -0.07103333345510023
1.600376673456531         1.3836854324196763       -0.06523772688749886
1.6050308722312325        1.3869231611595025       -0.06799899948659284
1.6242103212042653        1.410064810405881        -0.09050247517985938
1.6190626631754221        1.4096051737436017       -0.08554426065189193
1.6086958731905128        1.3954301042020334       -0.07438906376005668
1.612438237759004         1.398912029687289        -0.07820264379001642
1.6155842051535163        1.4044149407952593       -0.08210669784233415
1.6414091779062672        1.4354781624401893       -0.041698961110545156
1.6367328913336834        1.4184599031632248       -0.09828858599691452
1.6378016948142036        1.4224603026003815       -0.094663086482364
1.6427296228472912        1.4320742163636322       -0.06504685404250947
1.6414601068940553        1.429333420117014        -0.07906576542952527
1.6396178431379278        1.426310787228717        -0.08822578125844717
1.6351053304292609        1.409066110307442        -0.09639023570711835
1.636925508272742         1.4132697353298314       -0.09939155604426783
1.6403089550702326        1.416512428202667        -0.10037684943833185
1.6523984387639719        1.4674293079603558       0.016487005515132585
1.6568025310586283        1.4750007065406925       0.042679166833912256
1.6588095403676868        1.479294904281998        0.0406127158676441
1.6558167774023458        1.4702885487305013       0.030111188987075387
1.5502383926497303        1.2906898006522216       -0.020017459337139932
1.5540909769414313        1.2957467740676514       -0.023824516237089113
1.5496858265813447        1.2824713623835111       -0.013922185721628288
1.553574729253879         1.2875901756858292       -0.017810479537133262
1.5865871744905988        1.3654968220885346       -0.05381835086904997
1.5904486263342352        1.3698472223093792       -0.05615962901852089
1.5835441530697716        1.354125953870009        -0.04649091986661836
1.586132972500993         1.35972247980364         -0.04989804783815777
1.573414497016823         1.342014679257596        -0.042426993487070845
1.5712917883774211        1.3360692497094275       -0.03955458194237015
1.5833870118773459        1.3482772899889428       -0.04204184436926758
1.5795728590571583        1.3431830959326838       -0.04016603621452393
1.5625422948778884        1.3211550931424896       -0.03535062294149679
1.5615216379527923        1.3143206558019298       -0.031291749751496116
1.5686886674094098        1.3232591831010176       -0.032574413287366544
1.5702433367081607        1.3297813582483016       -0.03599021266831695
1.5604196951946259        1.3066811025149103       -0.02694617838305766
1.5594963698701148        1.2982160520939154       -0.0218271959283262
1.6446277299983911        1.437706101881375        -0.02547503668390373
1.6490421155292934        1.4432999932613566       -0.02520280379708074
1.648535787897341         1.4388907227936987       -0.039608128136560034
1.652467644588337         1.4612759053928266       0.005453138542071254
1.6540678945414153        1.4548579866972822       -0.007609050608022901
1.6538807502051014        1.4446612448978202       -0.034769070233278604
1.6541388777070118        1.4495794366132102       -0.020842270086060665
1.5959556680298237        1.3734754438673291       -0.05749515550728735
1.6312242357945013        1.4068894108375767       -0.09338542709073698
1.6269345118301701        1.4054886805581586       -0.09063853073842001
1.6016629860181335        1.37736017440684         -0.05935802187688615
1.6096875713984191        1.390877306771505        -0.07172614702643376
1.6058505845972706        1.3817636029547882       -0.06278366574047019
1.609660396217916         1.3856910046958533       -0.06621435694191807
1.6221428283868264        1.402955878756866        -0.08634716453630753
1.6139643869016498        1.3935088428355926       -0.07477639786755723
1.6178468470927556        1.397892623593497        -0.08019362881165244
1.6453652633559983        1.4340081432932053       -0.053748544531283186
1.641506843563747         1.4210371782819058       -0.09803608453238487
1.6455729491768005        1.4296763875094218       -0.07744649169352551
1.6442377864435813        1.4254020522745243       -0.09056163585471626
1.6354942413353988        1.4042932895183347       -0.09135533193087153
1.639497954313176         1.4088117864745977       -0.09734886640535641
1.6422254546722277        1.4125965346898057       -0.10074899174484393
1.64478728309108          1.4166877061403729       -0.101935983385235
1.657001743719142         1.4650614713998116       0.015662679993678676
1.6612380602861319        1.478214898212725        0.0554117315826857
1.663310265534787         1.4824002215064485       0.044721238278658995
1.6611143992689237        1.4735813930782546       0.04607831295154147
1.6614502058692844        1.4684124300358863       0.027550455398612336
1.665692149153594         1.4812427600550118       0.06280105376208119
1.6677022958160301        1.485321423680556        0.044183960689656174
1.549391700602711         1.2739502097845001       -0.007424806029371647
1.549383679178969         1.2650011530808463       -4.0883707414858327E-4
1.5531624776181616        1.270855708157742        -0.005845791211404959
1.5532787804390056        1.2792734060452755       -0.011966007703516105
1.5589234367493916        1.2922481559699368       -0.01855895376634187
1.558975048446908         1.2840768704505334       -0.013588430436906898
1.5926716140615382        1.3630305411717538       -0.049352783957784314
1.5981685363192117        1.3680872187986468       -0.05125523827301604
1.5896593862292119        1.3528118282788695       -0.04161518509414953
1.5941351516498448        1.3572228870137735       -0.04254901388696302
1.5764997840409047        1.3312521488983775       -0.03340334902842055
1.5917156797059981        1.3470737318575177       -0.03481308166887575
1.5798874855852476        1.3364723455068555       -0.0352385776107719
1.586428235012017         1.3414612688865168       -0.03425827874107654
1.567812457728622         1.3157846807039175       -0.02833192428624082
1.5672826917587457        1.3092089177621586       -0.024638147049696645
1.5742198783839318        1.3186780422297375       -0.026350574369331116
1.5773719814431255        1.3243633913110116       -0.02815641068049931
1.5663441190019136        1.3023044556985661       -0.02089085771739944
1.5662865001843016        1.2945184630996913       -0.016714289344620856
1.6484301442097573        1.4354300194760057       -0.0533034396246038
1.6535109954651175        1.4401183434399136       -0.0493193083473381
1.6528433884010956        1.4365786980094923       -0.06032409419808884
1.6589280325350382        1.452850936811631        -0.019773675727960308
1.6584394340202808        1.4584916566978          -0.0030597740373083104
1.6584492548792           1.4416122252015517       -0.05482507234644262
1.6589497190422797        1.4466346284974756       -0.03907570846370753
1.6627356970049882        1.4492001678987085       -0.03638849270085534
1.6025771781975875        1.3721548421575172       -0.05320421494673227
1.6294131082599241        1.4010049901940833       -0.08580445034969057
1.6081948795756527        1.3769382641032057       -0.05591150424543676
1.6145651304465072        1.387539596445914        -0.06745026884835907
1.6125783671587357        1.3811595863942108       -0.05943952371119902
1.6248309890988342        1.3962889317513867       -0.0786861809157101
1.619850220880651         1.3912851554494137       -0.07167185744296341
1.6349253970588424        1.3989767793509191       -0.08267627672928186
1.64954860162783          1.430915106144243        -0.07680136863349496
1.646814709242164         1.4215780430414315       -0.09934676002651734
1.6488148051523597        1.4264830273105031       -0.09015057685829865
1.6398685509154358        1.4001842955662525       -0.08470715274137237
1.640854833865105         1.404830355631571        -0.09259708981247224
1.644385945253551         1.4078746438963268       -0.09745116653035112
1.647150056577888         1.4121182043062164       -0.10209051300835759
1.6499028624121828        1.4172150360125715       -0.10408658811367989
1.6627928715385552        1.4617978023265858       0.005023638157752469
1.6655546764548317        1.4769961215806908       0.05901687545093736
1.6663885611448555        1.47165981457275         0.039487308388528986
1.6675149418616262        1.4656755171291194       0.01717836314073505
1.6703573514848222        1.4842633267726904       0.06630202794326796
1.672220227698597         1.4881926754496682       0.04010872219358506
1.6695253326576494        1.479883699994212        0.06800568011535557
1.6749166417189578        1.4870887128561816       0.06523759179403261
1.6768865220721416        1.4909808416272057       0.03349032569085042
1.549696992218745         1.2558387468208438       0.007053797534122168
1.5534707215418713        1.2617594967687498       7.412862193308076E-4
1.550355576559572         1.2465051696648963       0.014922452636165418
1.5539627879448095        1.2529231025158545       0.007215614418400927
1.559048270659853         1.2656226438772273       -0.0034748819174389464
1.5586671078363046        1.275692882078326        -0.008953882797745725
1.565409060708624         1.287683823719461        -0.013453081298891584
1.5660015912186294        1.279748251930599        -0.009724342880167694
1.5997137744829297        1.3624919156701267       -0.04379287651430414
1.604659033476012         1.3674776116620269       -0.045689904693122
1.5968673953560337        1.3523840623072496       -0.035540911586417034
1.6017730526694933        1.3572817892995708       -0.036337113078573534
1.598835297808727         1.3465741833882603       -0.027903009964659137
1.5836406358746755        1.3302944896825664       -0.02766308792716683
1.5930580550630864        1.3411533206762134       -0.028300789838324337
1.5888676973382592        1.3357432170991468       -0.02742529879336975
1.5735196056921013        1.3048486414897553       -0.01859003351758461
1.5760629622113818        1.3114966979912315       -0.020798627221547576
1.5822504756570894        1.3176906411381544       -0.02022286544346165
1.5863277447005013        1.324283322321974        -0.0211594594944406
1.575585254075477         1.2972315797042675       -0.01362171305111476
1.5732677715950094        1.2902724772552927       -0.011575136051010234
1.6533263133904148        1.4327691329988126       -0.07598015685695203
1.6575902583367315        1.4359828208644223       -0.07222422799470486
1.6649488938479333        1.453968112957484        -0.02261109657127234
1.6620744379542316        1.4382944511180327       -0.0720299796230326
1.6639886356761457        1.4440519546575763       -0.055867232364306345
1.6676616028052533        1.4483551122295153       -0.045157180038465326
1.6105636564290167        1.371648696176805        -0.04673471443101355
1.6311182431686766        1.394777589148571        -0.0754064962784658
1.615392288447671         1.3759428157786575       -0.04945502366003369
1.620359208641455         1.3830875216042235       -0.0588239727525095
1.626744404617547         1.3889696925165635       -0.06628227631317345
1.6381869788697223        1.3941464752360633       -0.07278530786764796
1.6434880693451972        1.397175356307526        -0.07816014039983814
1.653489501208426         1.428050593109557        -0.09111924124123005
1.6527691876488624        1.4224845180013674       -0.10220772235300456
1.6457100626124548        1.4024988199596249       -0.088938599695784
1.649405577005223         1.4071423063169306       -0.09730588018712415
1.6520931652268567        1.4122505582067861       -0.10399801103052415
1.6548269113477645        1.4167214825483148       -0.1071217961323221
1.6688408250884161        1.4581859065392477       -0.011047777667701451
1.6709579856019154        1.4754986080263965       0.053574458072253084
1.6719162840302078        1.4696662799195752       0.031655797360278064
1.672443084016265         1.4621756147732228       0.0022659128892046436
1.6750118402886238        1.4830613876259595       0.07592649690549723
1.6755321126117162        1.4780225220000234       0.06235274926536243
1.679588250965928         1.4898077434402246       0.06016224040665152
1.6816836161239843        1.493682908103277        0.025062834522045396
1.6785989901571545        1.4853036538326279       0.07874182165266148
1.684411437579572         1.4924511996056695       0.05143619948981155
1.6865938201544626        1.4963247373705362       0.014865640753753009
1.5513903113293899        1.2368929751740372       0.023281271504520886
1.5528385578946144        1.2269719518910702       0.0320735832749088
1.556061143689443         1.2339275464583357       0.02155221497540279
1.5547980277170035        1.2435651559399483       0.014271330713542326
1.5547419580894213        1.216742455672174        0.041297167765560625
1.5578943468829676        1.2240847731582158       0.028859031619569115
1.5595764371040965        1.2587787704086104       2.438118660351737E-4
1.5605369120590962        1.2497237369434906       0.005283405327750849
1.567235932850768         1.262639574634179        -0.0016221158011367864
1.5663610342090752        1.2708314041437367       -0.005396403964384084
1.575257590271884         1.2824232327109375       -0.007235128885376257
1.5735166722562082        1.275361793217049        -0.005086942912855797
1.6068227290947121        1.3619390588356752       -0.03741630976133028
1.6120262406624868        1.3660474481871112       -0.038211349299533924
1.6038114282340907        1.352064921010518        -0.02885263522038482
1.6085451692104875        1.3562276493143908       -0.029029668427092037
1.6057139659513437        1.346356869337146        -0.020384827656917646
1.6011115020002076        1.3411639726497848       -0.020334129764408026
1.5912038201116696        1.3304201712380817       -0.021157185920399304
1.5964811321360708        1.3355255527027028       -0.020071953905661428
1.5937970767140865        1.3245389283509597       -0.014418203102779695
1.5817143792240154        1.3045210934341964       -0.01333632909005881
1.5858574786489883        1.311763964916588        -0.013948528040182146
1.5900077759121394        1.3181044976159084       -0.014059912027700535
1.5855948058793103        1.2975786920160368       -0.007460386579127401
1.5814200862060939        1.290546358599518        -0.007315226839107031
1.6578107794526573        1.4309871021239065       -0.08903141952005998
1.6617553298941834        1.4332524419244277       -0.08753538834237208
1.6660599557922966        1.4349909211303737       -0.08821516326287811
1.6707836649462902        1.4522084838968512       -0.034453794471004835
1.6671215590333726        1.4394910020959266       -0.07524436789593426
1.6689126945885147        1.443748547778344        -0.06293937197451402
1.6725778764805694        1.446463312324655        -0.057138790373748145
1.6192815629643833        1.3683902691744299       -0.03579490216613184
1.6341744138855328        1.38790854584104         -0.06147918519818719
1.6239393195369933        1.375150439347882        -0.04273044691822885
1.6291128059658497        1.3818466108970762       -0.05208236735375018
1.6410349746272108        1.3874874457484012       -0.056685908805289904
1.6451389845149125        1.3923641488785519       -0.06684824645751695
1.6491484476933826        1.3974241264772298       -0.07777621425175336
1.6580657091519102        1.4252579262615799       -0.10310598798275693
1.6582165630790375        1.4201713459906902       -0.10851185759406588
1.659433975558782         1.4155853907302243       -0.10945792686501192
1.6517945496279196        1.4025551304632367       -0.08902878133502155
1.6549098488877756        1.4074655400682379       -0.09891688118633842
1.6573532075648452        1.4118160444461363       -0.10571448987460334
1.6741223534717509        1.456452677229807        -0.021702528418487018
1.6775089603466105        1.4598063508932124       -0.010202749867023728
1.6764484385207539        1.4719756398220594       0.040304783146762696
1.677245384414251         1.4652873291871817       0.014045432264392995
1.6798209636840558        1.480719040167693        0.0709702910916349
1.6801708345411586        1.4751537262105987       0.052225483231312965
1.6834958643123599        1.487739216427481        0.07974520296429731
1.6838951137400622        1.482562323307227        0.07637985858335085
1.6894709184405037        1.4949949886226521       0.03844358566012122
1.691626274536299         1.4988968019856521       0.005071559974924072
1.6887463426782932        1.4905170281693294       0.07516454317283926
1.6946695112667096        1.4975657208711692       0.021474704274098335
1.6967909748030736        1.5013856298416226       -0.0017041235163465754
1.557153301239626         1.2062049547948623       0.05088471509627647
1.5601928891350203        1.2135376665564297       0.036765738412943366
1.5630923492676216        1.2310411814063769       0.01481570421847138
1.5615186392347884        1.240557691172038        0.00999275041444776
1.5650018427361925        1.2217963781966263       0.019335318974569905
1.5675810915154877        1.2542884250865856       0.001738774008887216
1.5698301349389183        1.2453125846960456       0.004515249195007477
1.575898451419047         1.2590596372368474       8.135086454675977E-4
1.5854397776700195        1.2838312175544941       -0.002328812338554673
1.5759802714164397        1.2682840518772094       -0.0017847691919272066
1.5823695151425228        1.275791895564432        -0.0014804542760864833
1.6147102002549583        1.359450694003301        -0.026910615727590823
1.622748628953738         1.361564943442601        -0.019957481256795296
1.6125351721791739        1.3505471189792577       -0.017701180259491415