% Model:              physical-model-test-basic-70天单管.mph
% Version:            COMSOL 5.2.1.152
% Date:               Nov 6 2016, 09:30
% Dimension:          2
% Nodes:              512
% Expressions:        1
% Description:        曲面
% x                       y                        Color
1.9961889276922862        1.4367819584435282       0
1.9817819584435283        1.4367819584435284       0
1.9955891603837448        1.4341517617571893       -0.06690275554516527
1.9817819584435283        1.4511889276922862       0
1.9790812376574332        1.4505738434929536       0.002543102001589131
1.6382180415564715        1.4511889276922862       0
1.6382180415564715        1.4367819584435284       0
1.6408478420554917        1.4505892507268752       -0.0036660238310349635
1.6238110723077135        1.4367819584435282       0
1.6245726668282123        1.433437329938512        -0.025367253268938312
2.0179597353496095        1.4175413399764092       -0.07425421090723208
2.0088314118452386        1.4306487597343471       -0.06339540358211185
2.007139981305975         1.4195426250255492       -0.0809814758923086
2.0002782937996573        1.426063012310318        -0.09131481972089012
1.9948694396134952        1.4309955257335825       -0.08379513672029164
2.0272053904277647        1.4028276587494497       -0.06844456748425101
2.0148381760693748        1.4074613319237288       -0.05961384309792995
2.0038726268956673        1.4113449907395914       -0.052921030718805294
1.9960868646373957        1.418002835122327        -0.072195328867707
1.990350834965445         1.4257290924838513       -0.1066731977679599
2.0357305209253034        1.3860924838965372       -0.05868880252577433
2.0238017010062417        1.394670126621349        -0.047999984491832265
2.0433096075994506        1.3685757429646344       -0.04822900823040833
2.0312585169542667        1.3770486760263387       -0.03392646234581579
2.0501567474606817        1.3503877069984471       -0.03886573745352103
2.037943953079935         1.35860754913468         -0.025104819390980304
2.0090496214309876        1.3988412504300232       -0.017407402956288894
1.975840372714119         1.4498357424537545       0.00769142181327723
1.9947526598342764        1.3971467180236101       0.005791898571837929
1.991141288799146         1.4085509964423792       -0.03686052900575935
1.9837381620584842        1.4167862937322737       -0.07438139767689905
1.9774911410239455        1.4255683703408462       -0.09997742757467602
2.0559214171422933        1.3311644504217093       -0.029659856848635962
2.0424377797482465        1.3381452944194445       -0.014951953473585805
2.06009109438992          1.3107005205760838       -0.019914574089799943
2.0482213531084437        1.3198539039533124       -0.01254248704294897
2.06254125536541          1.2889324795297388       -0.010081540998837239
2.04975956584963          1.2984175772309394       -0.005761179385895282
2.062968374701264         1.2650125734234288       5.28006898743672E-4
2.051821071425193         1.2777485447794246       -0.0028693176362461063
1.9758713140395927        1.4639423957051365       -0.012922129510464167
1.970318126636439         1.4578602741915285       0.0025079101586099497
1.9630292786113637        1.4726405352277754       -0.027777541937432915
1.9609173387927332        1.4622598463004295       0.005243968169877892
2.016227597168152         1.3817560776387317       -0.0020934080404912563
2.022217385234753         1.363302283816303        0.004149580459181
2.0286892302145265        1.3429057921977445       0.004703797851013745
1.9999244493119201        1.3840497018031017       0.012251710657903243
1.9781960501699691        1.3829583778264845       0.015616959536473124
1.9703877442024385        1.446163105755417        0.01421908142126978
1.9781662350103968        1.4028928280274122       -0.022400526233961025
1.9702713513402548        1.4137108903845468       -0.07031715763456658
1.9651477559993986        1.4220417428529581       -0.08646421739918579
1.9689934824710953        1.433641934547791        -0.038364597960071634
2.0336939774836           1.325952363810774        0.004232738387959279
2.0384014504971812        1.3044884436202069       6.09376611701624E-4
2.061005632231328         1.2403115108556972       0.011028942420513993
2.0514108928011487        1.2549912092194302       7.854193180256739E-4
2.056559879192069         1.2153596039300198       0.021102011087880877
2.047580345583611         1.2305526073288384       0.003334781269168891
2.0374811703116333        1.2887815709268702       4.8303868668283676E-4
2.0374964263948976        1.2660559633107393       -0.003579845853658511
2.049197336023689         1.189477166376435        0.030679320954434923
2.0386723399558044        1.2058514493679873       0.002660282681273251
2.037818084676405         1.1629832406923122       0.03942402476633456
2.0304564713622626        1.1772070422867784       0.009943036644736584
1.9624386945542593        1.4514401317739858       0.015233527638181518
1.9487339355061108        1.4814425069601174       -0.034231295194218726
1.9539925635874735        1.4696734272666108       -0.0013765900968774993
1.9532566509429445        1.459382366478224        0.01588807437623171
1.9327961580638071        1.4901243120569165       -0.038869667204681844
1.9431175912686056        1.4769564852905208       -0.006736784000475911
2.004968413354452         1.3637919434241463       0.00993822032787423
2.0111571761056237        1.3396515031915295       0.004535163434607894
1.9837807282673945        1.3666426559081062       0.01822387937083976
1.9642583444330965        1.371888227606866        0.020772567476344744
1.9645918168793932        1.3884889586631135       -0.0028064289659165435
1.9602288080278583        1.4414454974238025       0.0047507615958463515
1.9578085702985077        1.3990886426130964       -0.03400605028291726
1.9552152917787897        1.4117064568825122       -0.07234657782315325
1.9545971948173435        1.4279529426850024       -0.0553350763046167
2.0179014678121865        1.3056794349638987       -0.0014875788719651143
2.0331579988330706        1.2467103290899384       -0.004531833697088552
2.0278192899486776        1.2230578568929922       -0.007181000596205879
2.014392565887502         1.27082186440468         -0.003297138342274203
2.0225363644350653        1.1359809212524765       0.04782220713154456
2.0134997557707677        1.1484159333029689       0.014633384961203788
2.002121787197541         1.1094683862832087       0.05609550666337302
1.9972230527870087        1.1270106231508115       0.01992478498310676
2.0204207176245172        1.1994544193928596       -0.012194265818472235
2.0084541960816225        1.1764711545505013       -0.017037516095562335
1.976261869051042         1.0840135986097135       0.06506985938089685
1.9710636534964032        1.1022425315531859       0.0250431905538003
1.944238374690359         1.061072113896381        0.07496594442714467
1.944995867348565         1.0824411217639507       0.03214842250796291
1.9493921547301085        1.449038347237991        0.013253276171980728
1.9455923086159692        1.4635438439584565       0.01723307622510355
1.9155690624101647        1.4980087368652037       -0.04191197326081401
1.9250812297944337        1.484792425781972        -0.008858621473404564
1.933068128998303         1.4701829540047835       0.0129508442870874
1.897146711020798         1.5048343057797007       -0.04374375996155771
1.9070058055581725        1.4921047711826616       -0.012728657697123646
1.9848277946201078        1.344533372780102        0.008086054359737005
1.9901295403234112        1.322144977925372        -0.004374515618894758
1.9633310141246443        1.3509701713947673       0.022004751511365443
1.9474234313703482        1.358751415233125        0.02221629713454751
1.9480660883687184        1.3791266768847148       -0.004028508683526237
1.9434830727893175        1.436433850785729        -0.019427234105626592
1.9439757848090145        1.3990014484825306       -0.048499855173824304
1.9416454817386928        1.416108687985093        -0.05759065720347139
1.9898481785768132        1.289483624026946        -0.006931468920515449
2.0049844160851813        1.2337003946485505       -6.198170805277943E-4
1.982896264096112         1.2587735330584644       6.782874047114325E-4
1.9913066533549073        1.1536111926834116       -0.018363593538944897
1.9730707980619917        1.1323268711691359       -0.015434105282455346
1.9867378329446839        1.192987333136427        -0.013919149648422486
1.9056103603703891        1.042875983058011        0.0835920611725803
1.9169247350125211        1.069423561084385        0.03430491181868183
1.9474801480672483        1.117212193188142        -0.017676332286432592
1.9238878332465927        1.0997559831568298       -0.012745083014841613
1.9301035965028184        1.4526524637718696       0.016579114951072903
1.9152903158639794        1.4772397248907019       0.006236606483401733
1.91702320318573          1.4601532391723795       0.012067013168506327
1.8771940000420202        1.5097634401172855       -0.04196465641777027
1.8890463969838043        1.4976543002823384       -0.015733985236967642
1.8978887914088554        1.4831913031425379       0.0025784082430152116
1.959849085568057         1.327895453699052        0.0039629828974558695
1.9660962382023566        1.3048604203041043       -0.00976459232637158
1.940096823465259         1.3341906884110226       0.016673148686688195
1.9284033794379798        1.3517874028585952       0.012502835646219497
1.9318002443438647        1.369080632751757        -0.003776802483825421
1.928875627748571         1.3856682473371986       -0.031962583467124245
1.9256583599872186        1.4270147923561383       -0.02537946130173772
1.9279399007629014        1.4053409081689099       -0.04411254642577645
1.860799702185265         1.0310480876295098       0.09130636231819156
1.876239934780324         1.0589999975167528       0.03414357011780539
1.9532199726163855        1.2807783315288865       -0.007477993753043276
1.9648395655702855        1.223640404112805        0.003180132272038037
1.9455769439489534        1.251345424734047        -0.0034066347746697714
1.9569958196584236        1.1601999259514129       -0.022290334673658006
1.9456374176235052        1.1974133787728378       0.0014331361049512994
1.8911065645209986        1.0917239440041286       -0.019957417087593767
1.8505969056318112        1.0824733205961032       -0.022439954950937566
1.9103130769743153        1.133373119153226        -0.026047575341246985
1.9063845259414498        1.4402246951209676       0.003876120266552822
1.8970083915804261        1.463771629141948        0.0054365557372132705
1.8560807797630774        1.5135392633635003       -0.039823150284784524
1.8699999909895348        1.5008175403775739       -0.015362508478126887
1.8796329054684153        1.482907603238535        0.0032258660837154725
1.933452840851068         1.305917515431917        -0.005341837473288521
1.9182481426807418        1.330256178940856        0.010913162053260693
1.9086125497383126        1.3481255706964408       -0.0012331166105016011
1.9127450596498095        1.3705822572711792       -0.0195536418478757
1.8971527147490759        1.3566297730646137       -0.012663222509581485
1.9093536911831344        1.3925504778082918       -0.028343063596660768
1.9093929103968847        1.4152749411954635       -0.02113387051656898
1.8100517340645061        1.0284765378774603       0.09456564623827853
1.8269504467760407        1.0518514984578204       0.03151057074957567
1.9172383163239763        1.270554946600788        -0.006898310565019157
1.916734810789757         1.229345202849461        3.8808569454620243E-4
1.9181172763878365        1.1776196466418978       -0.00551046098745303
1.8093915808955916        1.0849680948014497       -0.029578202672267063
1.8517032730468992        1.1258754402423126       -0.025629597400771177
1.8730149845159765        1.1692641167079312       -0.006300128854066967
1.8928335286640425        1.4232681492151031       -0.006133418789981482
1.8843013721834803        1.4413222657183775       -8.19091181661744E-4
1.8785376270110716        1.4613625727101358       -0.0018338333341961922
1.8336526997696363        1.5161256002340582       -0.03646114768024535
1.8472531911526482        1.5036231528840238       -0.01749032531645014
1.8595554526765548        1.4877131928943097       0.002318341796748435
1.8619203105992301        1.4699398208486656       0.0018529205283466905
1.9007868431018342        1.3043063876097907       -0.004681057160315125
1.8895873715577312        1.332753217476131        0.0015933654065143894
1.8783939399741147        1.3543316673211179       -0.009435477037620313
1.88764491717594          1.3793863966715156       -0.01737531803207996
1.8897516893457962        1.403359318379311        -0.014205664237639524
1.7574533605457994        1.0295317390498004       0.10600031432072794
1.768811119957027         1.0520652121664118       0.025896442000053695
1.708249735908497         1.0418805195960328       0.10532897155822867
1.7329542685818324        1.0546479806889817       0.035902431670825734
1.7697894565858578        1.088466063087856        -0.02704846578184008
1.668042409495788         1.0667639033750507       0.08028175060012302
1.6994494019031956        1.0736348083981884       0.013193762137438834
1.8860436953303366        1.2647248633828017       -0.00615955019088909
1.8700586456953021        1.2163441015250938       0.0019244166565439617
1.790328849661044         1.1257937586258449       -0.020249773109907724
1.8232602426074975        1.181130148775865        4.186654476505473E-4
1.8738398158258227        1.4204369982448868       -0.007348848024548515
1.8663377810266009        1.4417651926188761       -0.007178974172479241
1.84985026501083          1.4452870265024265       -0.009286338459866443
1.8100022887533826        1.5171548661067185       -0.030493415291106107
1.8225229880314147        1.5045471499965628       -0.01996901242988203
1.838245422659682         1.4870677422205638       0.002961777280495633
1.8375470350716931        1.461297469323594        -3.5028441801073315E-4
1.8684103000348158        1.3067057300691756       -0.005673198185119793
1.8574734642649486        1.3377580355370091       0.00271262557440089
1.8613477285579136        1.3738525396416195       -0.010590806940543956
1.8656872888922982        1.4001579129640467       -0.011071332186746009
1.7311651730799142        1.0898995251458004       -0.024293487509113094
1.7489183287587478        1.1258462641172797       -0.013982718198588191
1.6346699555781405        1.093789319963919        0.06262235437011089
1.6648254221303926        1.0955201391133977       0.002266135770731197
1.6925240018699217        1.1015312145268905       -0.016633083427832374
1.6071272614489664        1.1216983629383996       0.05521839927123569
1.6320530914102402        1.1222415564991155       5.472593158729783E-4
1.6092893432051447        1.1457402870785562       9.709713251353805E-4
1.8392953666624516        1.2697033279047385       -0.014300498096091392
1.8238109941831646        1.2295712346630547       0.004256159874165776
1.7711976010448567        1.181393069530142        -0.0034474368723484403
1.792046035317923         1.2157239876080879       0.006029014348087438
1.5864388805322989        1.1513095755641187       0.043683221301687496
1.8492957246021864        1.4166492469346401       -0.012763596450656984
1.8301087948775943        1.4363028880934765       -0.012206096347175286
1.786173635740644         1.516750032655065        -0.02295684836768727
1.7957892575328342        1.5046854508752132       -0.018439287231176132
1.7643464711038663        1.514936662147037        -0.0188661610545529
1.7726259461080796        1.5064558784119257       -0.016832924305977118
1.8032773202317864        1.4908236869535079       -0.006246495735426315
1.8174363038132784        1.465106164197705        0.0038571784940776696
1.8368442885991316        1.3554652881327915       -0.0015498186950181317
1.8244536656030768        1.3208144859272188       -0.0036909380584556474
1.8061488424399756        1.2892544366235865       -0.018475733929455625
1.834117799021902         1.3894961445748566       -0.008536957985731987
1.7437237217398205        1.5112436557760676       -0.019052873528900127
1.753934885108361         1.5023039170354557       -0.014062464771657684
1.7062437118154872        1.1337087992630357       -0.00901706815033214
1.7353298216996487        1.1750318179538566       -0.008344463013518811
1.6571030014566204        1.1355112004899766       -0.006613957537324728
1.6280827434849485        1.147274078362859        -0.009046415120973952
1.5939065759212583        1.1688970135784245       -0.0012935474977258706
1.6100315571906942        1.1675669938756164       -0.008020840028998305
1.7891545694357303        1.2568908366610911       -0.00786022758208882
1.7465292473146652        1.225053544030131        -0.001196331343777427
1.573145387847283         1.1817881760261637       0.025457520204183227
1.5844935815695382        1.1977109205404206       -0.008215099369545035
1.7820765731204347        1.3026594628847572       -0.01509664599863866
1.82186233093669          1.4111275407062804       -0.012047527412878846
1.8111660857799654        1.4361917103928479       -0.008777942133667959
1.7801333663316967        1.4923810911274995       -0.009454212700803669
1.763438965225679         1.4928233582412254       -0.008749556295744802
1.7886143205866711        1.4702484045837116       1.0997524709111644E-4
1.7967491501639081        1.4441663753042233       -0.0030175397655555153
1.808278541288897         1.3601330047406774       -0.0041871207575878665
1.7909147524662654        1.3356191725236555       -0.006033227692723368
1.8034413624206174        1.3906276965787379       -0.0057211410298128535
1.745842759730579         1.4888922764199628       -0.008463823439853703
1.7245278434103035        1.5053328045864425       -0.020333298873634643
1.7336314467421405        1.4994716712165148       -0.0136726601580046
1.673374199867968         1.1790454220338842       -0.014261031273738812
1.703625451270165         1.200085262887769        -0.006146410169454713
1.6361347809921873        1.1746297346943948       -0.013798697115047288
1.6026858308850431        1.190457229516428        -0.013165901782350197
1.596186982067005         1.2133309991144128       -0.007597191548547125
1.753332200260031         1.2673651582737613       -0.011221881074083758
1.7153614257635013        1.248439244434555        -0.00802923489640227
1.5766039504922886        1.2242530945291112       -0.007765312114467988
1.564873616488092         1.2110708606664424       0.011578761246489423
1.7486610555776034        1.2943047275282353       -0.010435284375766511
1.7622564087974002        1.3373885587321697       -0.005311205196054346
1.7493297848632035        1.3159328775143004       -0.010188092324339502
1.7930785372229672        1.4155949420591865       -0.0071755074069817576
1.7637359050949177        1.473165055751359        -0.005487141864381761
1.772800187508643         1.4448775804686735       -0.0051918273001037634
1.775843369800467         1.3689889352674431       -0.0036450712487745385
1.7785614671594288        1.3962494883564929       -0.003022033174968273
1.7390867703231974        1.469328458644248        -0.005291489619928807
1.7323225942446474        1.4851802650295487       -0.007717469028530419
1.7067429817819244        1.4978502230008246       -0.021746471409434472
1.7158169381919335        1.4924796278961292       -0.012996853367508386
1.657437140511593         1.2110945282422891       -0.008214551722216286
1.6871927420083765        1.2373629599903377       -0.011227590746401913
1.620437576574301         1.2230176787170703       -0.008181039601007174
1.5920502092399575        1.2461907810065314       -0.007015059359707954
1.6902927215721824        1.2677232378557164       -0.005542757982585751
1.7210307955575108        1.2826114350946494       -0.006769325074381061
1.5730785869074364        1.2539164880350135       -0.007989832449448496
1.5845848861340825        1.270815993953377        -0.008209651320281047
1.5602048320523665        1.2386473770956328       0.0018027075811471276
1.7218326754533313        1.3067885110865423       -0.009352970414435433
1.7233277432588041        1.325024027735416        -0.006970391728466639
1.749530691667577         1.3632786516605215       -0.005577890656918813
1.7348474014567683        1.3413949128654998       -0.0014193712171022778
1.7638842247425135        1.4172150264578598       -0.0053487271777148265
1.7469699611847502        1.4447292173881403       -0.006361022134544445
1.7257114448776414        1.4600512464453757       -0.00567622451220579
1.7513907914044375        1.3916707983396084       -0.004562849775960216
1.7341355603924151        1.380146448811653        -0.009467251007026344
1.7134688860692509        1.477031228625321        -0.0067567108831843095
1.6896631951767407        1.4898818669198877       -0.02374952788036659
1.6985244335041496        1.4847773351568319       -0.012232182878051473
1.6532197567109348        1.252983376297868        -0.007312426341579582
1.625762810686969         1.256428238876405        -0.005670403767486202
1.6082341742245407        1.2739923836464342       -0.007481988459303612
1.6693300145137182        1.2785423395591817       -0.003959420568748246
1.6926323343015652        1.2937228682205912       -0.005669205049926838
1.5849990068623376        1.2922263747399438       -0.007844449582327018
1.5714017228415693        1.2790281057099817       -0.007952892645871895
1.5579880805770643        1.2650305477004622       -0.004530642704687439
1.7003762817016768        1.321935983802221        -0.006898353037838479
1.7080282574152128        1.3452121103852555       -0.0033844551010181255
1.7238312630756876        1.3615105440638513       -0.004773066877725572
1.7398584743752925        1.4166901226348778       -0.005392240478086389
1.7276832503774384        1.438167845814988        -0.0053824941263287615
1.7089816936462654        1.4602875730325582       -0.006882752591775196
1.7171404443979004        1.3788381017574283       -0.00861042531998825
1.7252751388015595        1.3975891077701406       -0.006145216870864167
1.6922987571389094        1.4709247920514459       -0.00714063821736662
1.6727016006199003        1.481746601009895        -0.028264024572245215
1.6826668959539333        1.4767066755013314       -0.012021359526880562
1.6413017295656196        1.2845184942794423       -0.006060216837516167
1.611811286477164         1.2920066850834442       -0.00732659251511891
1.6628217033798223        1.3028433621809044       -0.008238400576839264
1.6760301303784735        1.3183812291891601       -0.00917019763340754
1.6044021261424617        1.308778063461668        -0.006155190924172615
1.5853579515089256        1.3109162503684          -0.007532547542913731
1.5695365170374131        1.3025251951150663       -0.0077498310125552325
1.5582232595310819        1.2896540347160281       -0.009558342551692914
1.6842367479505647        1.3371119881149751       -0.004956558508345393
1.688389731650145         1.3534536197829783       -0.00426950558726803
1.6997715900885142        1.3672190168730667       -0.004289684773890786
1.7142652162531362        1.4211471508555806       -0.00521598582687476
1.709064454658938         1.439974395521223        -0.005470565449874971
1.6937872828809641        1.4550618644394304       -0.00714790497082628
1.7037320976146126        1.3900074656534092       -0.0061707376817571324
1.7020026735355487        1.4099791929938552       -0.0071268381602449665
1.67535713124736          1.4635369186195535       -0.008116067367869946
1.6575906768103799        1.472873305494481        -0.031378215245726
1.6674562580365393        1.4693725392503751       -0.015918837230235475
1.6332923731355522        1.3090429677499396       -0.007793739036864095
1.6544457497753853        1.320862283743598        -0.008564809894178294
1.6612248994174048        1.3365998956326153       -0.004267343982250719
1.6107951897134833        1.3257893619825836       -0.006650634671542468
1.588920286165278         1.3312507564268483       -0.007311355115610159
1.5727751701326667        1.324974546547995        -0.007747491442510243
1.5606929954279662        1.3121162824562091       -0.014605988866592182
1.6685641100123139        1.353240946227259        -0.002850890846252244
1.6786957161763507        1.3683189231656627       -0.0029972523839147803
1.6856876465137995        1.3855075906327952       -0.006290567369626368
1.6917657686152097        1.4325813001132144       -0.0049432358142641455
1.6774297148611133        1.4483889905713807       -0.007960009507981758
1.687364174209678         1.4026741526930908       -0.007636370686770387
1.684624030623512         1.420040488340118        -0.007438563606009546
1.6652408903453264        1.4573982354568162       -0.008035835565116958
1.6443541922252567        1.4638299917225945       -0.021830857417470328
1.6540229954046854        1.4620991407561883       -0.01792568553403107
1.6338837783704288        1.3338579374466888       -0.004393978426202306
1.6473696681010102        1.3536900755695165       -0.0033165393821961227
1.6110273031208404        1.3437067279908275       -0.006080844563181738
1.5934733493549404        1.3482458205454666       -0.005825823118354113
1.57715452353084          1.343405119787962        -0.0077345767967005
1.5649866784262552        1.333003584808905        -0.019262081381766563
1.6580446398916848        1.3706620718793818       -0.004287024896379002
1.6678024421302247        1.3835581863304303       -0.006717674210631411
1.6728745183979918        1.3981357088556225       -0.007617080610670846
1.665522557193822         1.4451071976041567       -0.008277753815106786
1.6725234912127902        1.4337704750914835       -0.002765365846333368
1.6739771906906558        1.4149006080800466       -0.00826772934871864
1.6569250339608648        1.4511086211346813       -0.011039935600507861
1.644003602654316         1.449869638368382        -0.0016779555543244174
1.6496842518941488        1.4549487804143344       -0.014062563662365368
1.620782079202938         1.3589646060250353       -0.004255151401182437
1.6369931833795468        1.3738292069326072       -0.0038593364244250195
1.6008818462971004        1.3669390620185458       -0.0026622054930963974
1.583579457406239         1.3623335156511844       -0.008307592354167804
1.5706594995718293        1.3525017267464807       -0.02343668973996326
1.6505927648384242        1.3868942064952379       -0.007820544246093785
1.6589324853272465        1.3978899183806885       -0.0072328521302202145
1.6623439171824856        1.4095967815655526       -0.007077840274558842
1.658171998465084         1.4393670143563533       -0.005107727868191757
1.66280115420627          1.4241073373586364       -0.005068448591756407
1.6497855685675262        1.446935357419479        4.087552859581345E-4
1.618701126468478         1.37873125874233         -6.777693668184053E-4
1.629487751057169         1.392372893744277        -0.005212375761349041
1.6044612132534863        1.3824494453338252       -0.0063472094539502475
1.5902154775108481        1.3788305998078523       -0.012677217238874385
1.5775473963372395        1.370690659016903        -0.02737866338269867
1.6431237485395143        1.399771741573303        -0.004670179238762003
1.6282892300074077        1.403447122905588        -0.01414260850689283
1.650051654030243         1.4102521281352          -0.006760553163859055
1.654294244108862         1.4186470441969132       -0.006906985844659488
1.6484943046968394        1.431935380475896        -0.014650698391571659
1.6131031934693882        1.3989053360466988       -0.013690546515622404
1.5982397369839934        1.394745972957037        -0.018503721935804653
1.5854369139848958        1.3876926023850134       -0.03074501317451399
1.6346292148697967        1.414044319990398        -0.025851276113811494
1.621107663378845         1.4120445567381017       -0.028472902090393267
1.6414518566406866        1.4232545094211468       -0.029361822048597896
1.606211176893861         1.4102044433106897       -0.029523921837038256
1.594079011899393         1.4034085342766711       -0.033451092729712396
1.6147745003108516        1.4224525061312494       -0.035937963997171925
1.6291467607130823        1.423304302844428        -0.03809105613875347
1.6027574358284828        1.4175695428771884       -0.03248682570847252
1.611677664880976         1.4295791846237171       -0.02265335218817527
1.6254865802528111        1.4294237757324924       -0.03256158328008112
2.0117819584435286        1.4367819584435284       0
2.0104408008988512        1.433994140848446        -0.03169396687248561
2.022119799634336         1.423840141661637        0
2.0202288613230968        1.4209770499865335       -0.054309878833621
2.0325118055985616        1.4089218411821776       0
2.0300997987027447        1.4061517582582104       -0.06232847394666042
2.042524761578418         1.3921111138055982       0
2.039436470372457         1.389375372937843        -0.06058138672439709
2.0514773892896563        1.3741497616206808       0
2.047764761248654         1.3716161167770233       -0.054917561533078724
2.0592269344292142        1.3550607303713222       0
2.0551041221707904        1.3529366288381972       -0.0466491080791178
2.0656502280414726        1.3347707739841181       0
2.061228041269118         1.333131536001205        -0.03663136245965807
2.0705760283536           1.313219637570848        0
2.0658101492792           1.3120745843914097       -0.025185683961807506
2.073793432021956         1.2902591611515044       0
2.0686788062689807        1.2896561240507018       -0.01261588383474737
2.075                     1.265                    0