% Model:              physical-model-test-0514-0521.mph
% Version:            COMSOL 5.2.1.152
% Date:               Nov 8 2016, 15:26
% Dimension:          2
% Nodes:              2827
% Expressions:        1
% Description:        曲面
% x                       y                        Color
1.6338206791613388        1.4367819584435282       0
1.6338899069045298        1.435801198153968        -0.008664388905240088
1.6382180415564715        1.4367819584435284       0
1.6382180415564715        1.441179320838661        0
1.6392112977996534        1.4411077768011324       -0.05186889198018024
1.9817819584435283        1.441179320838661        0
1.9807904643972833        1.4411093342998533       -0.021309102054325565
1.9817819584435283        1.4367819584435284       0
1.986179320838661         1.4367819584435284       0
1.9861065567055494        1.4357717634365135       0.004808097173051315
1.6199395308044817        1.4342851079403958       -0.0013152891140352332
1.6148818079971388        1.4339497035986997       -0.0012082432929389209
1.6162718609090032        1.4317940089286152       -0.005182216156663362
1.6108614965970294        1.4310936189184382       -0.006463788178063853
1.6096277886244477        1.4337726019508095       -0.0019444775379866156
1.6060729647275962        1.4298776601967185       -0.015260371116724996
1.6248292428131115        1.434461072610373        -0.0012278260858257783
1.6213402742097383        1.4322642404698103       -0.0053396282518904
1.620137302936764         1.4290836071059625       -0.012782645091104482
1.5864669985976938        1.4022053585877325       -0.10582479346780986
1.5836342013926048        1.3974237023893652       -0.11339731227994262
1.5876031695579371        1.3994450332777502       -0.10490606029862405
1.590446534953525         1.4042315750414773       -0.09564578561764575
1.5893749985613805        1.4068431656679885       -0.09728095455667155
1.593419696230727         1.4087633811269282       -0.08485314733770245
1.5923602205970901        1.4113540752577138       -0.08699550032087107
1.6024507561524088        1.4255621856945222       -0.035864310788888985
1.6067760433819747        1.4271126853043492       -0.02170920185691425
1.6142262416638264        1.4283319654659203       -0.013994238421312378
1.6102962238432479        1.4261617402663764       -0.02075936364798245
1.598935768009665         1.4207554897197712       -0.05657758658365773
1.6032840376998363        1.4229647733943382       -0.03940910551307889
1.5965647782929657        1.4134149698565408       -0.0723956206878228
1.5955410379795838        1.4159503751022096       -0.07390512654777642
1.5999207883588598        1.418219907316899        -0.05710801060301868
1.6262029477904374        1.4325468140494038       -0.0068189437481383204
1.6295084431219258        1.4345754284410708       -0.0021954991741679098
1.6250789738178464        1.429474035997543        -0.013848700224885019
1.5808716212394511        1.3925018998794116       -0.12013921826744092
1.5848227819529959        1.3947237834965929       -0.11341321588522257
1.5781786979370347        1.3874395938534854       -0.12642119712194363
1.5821418226364807        1.3897412645625011       -0.12089624207221349
1.5893311180486591        1.395362439159417        -0.09063588516848876
1.6174660096242643        1.4242609753758795       -0.0221694198673785
1.6230245768806655        1.4250208039264072       -0.020823207055639475
1.592018890442633         1.3998393416785095       -0.08346756709871207
1.5944068261844273        1.4037711337796093       -0.07683851316192607
1.5979742684252862        1.4092437581843598       -0.06632109413530783
1.6069376611216526        1.4220202788570602       -0.034100298570985
1.6120749975519795        1.4229559749323488       -0.02619445646553468
1.604564648474372         1.4190681683622601       -0.04336376695145375
1.6013021499249782        1.414216117578914        -0.05533807004879445
1.6296077809733678        1.4297061750006475       -0.01772293155578031
1.6308128931093036        1.432753551985198        -0.012042357989087015
1.6339729801963592        1.4346242858064957       -0.016813738792574594
1.6276472969536226        1.42577083297879         -0.0214400861176758
1.5755596283519713        1.3822323122584466       -0.13217976607440182
1.5795547558263017        1.3846020457538553       -0.12783435680524444
1.5730171001905497        1.3768760946030647       -0.13766841386747627
1.5770488483761034        1.3794852771255577       -0.13416020244767746
1.5705526819678397        1.3713684714140217       -0.14277477621825968
1.5745071947066134        1.3739758191947564       -0.1402856977577173
1.568170607577794         1.3657042143919529       -0.14773194692668518
1.5721480091445954        1.368536964328318        -0.1457532151669295
1.5658792493214972        1.3598752507616692       -0.15248176456278237
1.5698253483168145        1.3627600430663414       -0.15099113964432853
1.563690453339641         1.3538739977035372       -0.1570356083477141
1.5676736914139708        1.3568205021957436       -0.1554241033561996
1.6406657090330021        1.4550733321950498       -0.05449948834307368
1.6404993890088657        1.450175818676756        -0.05552373763325073
1.642637933848691         1.4535837708205468       -0.015220336403776407
1.5869623840209879        1.3909940950822668       -0.0964612198540299
1.583948690875089         1.3850283393380434       -0.10317726125528028
1.594507357462825         1.3946755532337545       -0.07912181989174688
1.592468846644245         1.3904015736049127       -0.08401971832948968
1.6151585195903548        1.4196896822367926       -0.029994172506248314
1.6208016071439608        1.4191937482033399       -0.02806908888137657
1.6256117059214952        1.4202209576692961       -0.026122666635318485
1.5975401155705944        1.399204859471554        -0.0720628271078776
1.6004406282994288        1.4043823911160709       -0.06419945259727126
1.6034935182501822        1.408069252580448        -0.05615862206088713
1.6051758929316227        1.40271812755425         -0.0599851608160978
1.6098225514541977        1.4175571153834463       -0.03745263383623026
1.606579615523378         1.4127834716011427       -0.047157890227176286
1.631510031631808         1.426169581440474        -0.023020872032003075
1.633320942858028         1.4297469198199324       -0.023792781448337297
1.6351948170340256        1.4327776207601794       -0.026173175913852736
1.6299400927419216        1.4211283424660701       -0.02494209636217495
1.5819458266832005        1.3808066356651585       -0.1075150615623952
1.5793456500545167        1.3757000058604478       -0.113492918792945
1.5770239727165782        1.3701310531899578       -0.11789335359590701
1.5744139809247284        1.363503152228686        -0.1223604956861899
1.5616145957667955        1.347692066604622        -0.16159325519968876
1.5655618237504128        1.3507495966989749       -0.16010562400458125
1.5596593831562588        1.341320893804211        -0.16611829908441963
1.5635496070636812        1.3444265497704144       -0.16435333163133067
1.5726095975085375        1.35905892402384         -0.12618279728602944
1.5703822212414742        1.3520461448303263       -0.1292438907087354
1.5578334591734642        1.3347537805396013       -0.1706566839381632
1.5561455598851308        1.3279812030140719       -0.17514274598553628
1.5601304453048026        1.3317407897574722       -0.1712695052322594
1.5618097486800864        1.3382347916697332       -0.1679179165758605
1.6404032052914714        1.4410219239560982       -0.05969521077082297
1.6404248532103443        1.4454872574691047       -0.05674412587486906
1.642427461939061         1.4487121083336507       -0.01801769026064479
1.6424476725488342        1.44387922943493         -0.018678978754298917
1.6432075065959173        1.4585281064101274       7.440261870273156E-4
1.641048458428582         1.4601189889554678       -0.04028825656557366
1.6441287240239484        1.46388574733431         0.014175343607517555
1.6413120175231082        1.4653327103133675       -0.027971716186679797
1.6451836076493307        1.468851956852478        0.005077464682668907
1.6455382537170415        1.4544141650104248       0.04881872597150916
1.6453618117900601        1.4498735662404554       0.04368363052845867
1.5899003352908219        1.38580321737517         -0.08952555507487521
1.5875156724422808        1.3804254878094777       -0.0942056620584928
1.5999578788403699        1.3944722792559807       -0.07255382972274534
1.5954922819699233        1.3855348773527623       -0.0824425357849216
1.5995243160098833        1.3893687499095764       -0.07594620605712639
1.628080924938563         1.415035271167593        -0.03047084438756501
1.6168782464188065        1.4148784127156668       -0.03542306252417987
1.6227995745869392        1.4143927430058247       -0.0331978254683138
1.6034780805045428        1.3972586693029303       -0.06649175118651802
1.6080581762247788        1.4001188640186506       -0.059286747465153264
1.610138241419972         1.4054067576526066       -0.052018295026424036
1.6130974687329838        1.4109591339968437       -0.0431721117309846
1.6341856871944238        1.422128995245356        -0.02403715560141698
1.6392002637829461        1.432985127724436        -0.039001249057780525
1.635884356759488         1.4261498369657273       -0.02415313435052951
1.6371917238757936        1.4301336751918212       -0.030550116980505266
1.6327553989061054        1.4167231059910579       -0.02730589002907251
1.6481362202211367        1.4681801015045952       0.03722966732647725
1.649442609661823         1.4724645655554556       0.018606992636259638
1.6519146873560238        1.471562923551262        0.03906766070739364
1.654145286913338         1.4759499512853211       0.027769414450738116
1.585435688580908         1.3753188244576224       -0.0978721305909991
1.5827683913158512        1.370439891698078        -0.1024160090495712
1.5805124405568303        1.3652199063861175       -0.10589253091062402
1.57887794630468          1.358957580323988        -0.1073192612655897
1.5686869218358244        1.3469149668929015       -0.13217202083360172
1.5666671715873604        1.3399536631093703       -0.1351494372506852
1.576823327158156         1.3536801012371236       -0.10973043444848041
1.5747817805538993        1.3481289301189727       -0.11213820446750146
1.5546066462058346        1.3209932031835747       -0.1795536206845093
1.5585969742236434        1.3248994087447816       -0.17420567531517553
1.5532307615700784        1.3137811745014123       -0.18388299726496007
1.557230003213409         1.3179730017991467       -0.17692681548931974
1.563801284173224         1.3281471622321839       -0.13881963569000597
1.5652622428028042        1.3344744648126246       -0.13691712115678253
1.5520322242475972        1.306333100290561        -0.18807313394840935
1.5560438386727262        1.3107159142298093       -0.17925126219365184
1.5510279779087144        1.2986395918303122       -0.19227847994551414
1.5550071530103071        1.3032612073660599       -0.18147216742385172
1.642061723984497         1.4394533871140103       -0.044803007958110104
1.6451963352656318        1.445502829733057        0.03395390733775975
1.6452645166055468        1.441852946527939        0.023310385801949638
1.6470069374174465        1.4592999334859584       0.05808528745814522
1.6484326623323144        1.4638134387341748       0.05534270533114127
1.6499427615791307        1.4563036102031064       0.06321959675073217
1.6490250713928376        1.4473002484840696       0.04452769057881666
1.6495186726521474        1.452246077326939        0.0580012286114582
1.5906142209334786        1.3758415286032921       -0.09083380105329576
1.6320246711089088        1.412163968274251        -0.030515251148107266
1.6282979290728947        1.4099823163178882       -0.034262741662745885
1.594855843382381         1.379634519731584        -0.08474594857050961
1.6051943450060489        1.3919130835546063       -0.06803965192509252
1.600376673456531         1.3836854324196763       -0.07659944874855608
1.6050308722312325        1.3869231611595025       -0.06971503017159435
1.6242103212042653        1.410064810405881        -0.03677947798733434
1.6190626631754221        1.4096051737436017       -0.04080322728862292
1.6086958731905128        1.3954301042020334       -0.062270397523742756
1.612438237759004         1.398912029687289        -0.05616805909290163
1.6155842051535163        1.4044149407952593       -0.048756697581574436
1.6414091779062672        1.4354781624401893       -0.043471131760629056
1.6367328913336834        1.4184599031632248       -0.024604312055118493
1.6378016948142036        1.4224603026003815       -0.022217373185992102
1.6427296228472912        1.4320742163636322       -0.022025704222985047
1.6414601068940553        1.429333420117014        -0.021749863169867958
1.6396178431379278        1.426310787228717        -0.021207971388575303
1.6351053304292609        1.409066110307442        -0.02960942204598808
1.636925508272742         1.4132697353298314       -0.02675571489759579
1.6403089550702326        1.416512428202667        -0.02306638438220572
1.6523984387639719        1.4674293079603558       0.05550170171246117
1.6568025310586283        1.4750007065406925       0.04299137711623675
1.6588095403676868        1.479294904281998        0.030445213785964875
1.6558167774023458        1.4702885487305013       0.05159945346887595
1.5502383926497303        1.2906898006522216       -0.19649826039423174
1.5540909769414313        1.2957467740676514       -0.18390608072594228
1.5496858265813447        1.2824713623835111       -0.20013289902525438
1.553574729253879         1.2875901756858292       -0.18443704042370979
1.5865871744905988        1.3654968220885346       -0.09593566927212877
1.5904486263342352        1.3698472223093792       -0.09062297806022865
1.5835441530697716        1.354125953870009        -0.0971956208969854
1.586132972500993         1.35972247980364         -0.09490640272136487
1.573414497016823         1.342014679257596        -0.11214855992640928
1.5712917883774211        1.3360692497094275       -0.11491181343181277
1.5833870118773459        1.3482772899889428       -0.09432251159859907
1.5795728590571583        1.3431830959326838       -0.09960730149922917
1.5625422948778884        1.3211550931424896       -0.13941017250132784
1.5615216379527923        1.3143206558019298       -0.13947247585970232
1.5686886674094098        1.3232591831010176       -0.11527941391135561
1.5702433367081607        1.3297813582483016       -0.11419172945672089
1.5604196951946259        1.3066811025149103       -0.1403915245734988
1.5594963698701148        1.2982160520939154       -0.14032099512551566
1.6446277299983911        1.437706101881375        -0.003426719813042989
1.6490421155292934        1.4432999932613566       0.031093319881218644
1.648535787897341         1.4388907227936987       0.016039693638421674
1.652467644588337         1.4612759053928266       0.0631494762311174
1.6540678945414153        1.4548579866972822       0.05477667472358807
1.6538807502051014        1.4446612448978202       0.03348632070258387
1.6541388777070118        1.4495794366132102       0.04476745407704046
1.5959556680298237        1.3734754438673291       -0.08225319346151544
1.6312242357945013        1.4068894108375767       -0.03354702516157478
1.6269345118301701        1.4054886805581586       -0.0380490666404737
1.6016629860181335        1.37736017440684         -0.0736111279659067
1.6096875713984191        1.390877306771505        -0.06252290008312539
1.6058505845972706        1.3817636029547882       -0.06773854560314475
1.609660396217916         1.3856910046958533       -0.06212899871074738
1.6221428283868264        1.402955878756866        -0.04378127866945747
1.6139643869016498        1.3935088428355926       -0.056346240992582015
1.6178468470927556        1.397892623593497        -0.050532116197828734
1.6453652633559983        1.4340081432932053       -0.006540104621116267
1.641506843563747         1.4210371782819058       -0.020714858044789345
1.6455729491768005        1.4296763875094218       -0.012486270048101171
1.6442377864435813        1.4254020522745243       -0.016543772230629774
1.6354942413353988        1.4042932895183347       -0.030385900556755503
1.639497954313176         1.4088117864745977       -0.02606231044748213
1.6422254546722277        1.4125965346898057       -0.022768235781723403
1.64478728309108          1.4166877061403729       -0.019222281278684337
1.657001743719142         1.4650614713998116       0.0553734727807858
1.6612380602861319        1.478214898212725        0.042773476863088765
1.663310265534787         1.4824002215064485       0.029577826249466442
1.6611143992689237        1.4735813930782546       0.04901462038528423
1.6614502058692844        1.4684124300358863       0.05061821476774316
1.665692149153594         1.4812427600550118       0.04161046063957436
1.6677022958160301        1.485321423680556        0.026311252312609036
1.549391700602711         1.2739502097845001       -0.20356766765794662
1.549383679178969         1.2650011530808463       -0.20669668114219938
1.5531624776181616        1.270855708157742        -0.18565829278752854
1.5532787804390056        1.2792734060452755       -0.18498087468871208
1.5589234367493916        1.2922481559699368       -0.14092644963500658
1.558975048446908         1.2840768704505334       -0.13723743530658836
1.5926716140615382        1.3630305411717538       -0.08368502707520172
1.5981685363192117        1.3680872187986468       -0.07580811219586754
1.5896593862292119        1.3528118282788695       -0.083239885602496
1.5941351516498448        1.3572228870137735       -0.07658412415560745
1.5764997840409047        1.3312521488983775       -0.09951771928420355
1.5917156797059981        1.3470737318575177       -0.07400510997541394
1.5798874855852476        1.3364723455068555       -0.09479971327333746
1.586428235012017         1.3414612688865168       -0.08247506629829014
1.567812457728622         1.3157846807039175       -0.11363284023578628
1.5672826917587457        1.3092089177621586       -0.11169185370486985
1.5742198783839318        1.3186780422297375       -0.0972575954602761
1.5773719814431255        1.3243633913110116       -0.09264922612068228
1.5663441190019136        1.3023044556985661       -0.11120764224152231
1.5662865001843016        1.2945184630996913       -0.10790132303741044
1.6484301442097573        1.4354300194760057       0.004227710965207509
1.6535109954651175        1.4401183434399136       0.022401734898401096
1.6528433884010956        1.4365786980094923       0.013397178729929422
1.6589280325350382        1.452850936811631        0.0449496530348479
1.6584394340202808        1.4584916566978          0.05141694487474408
1.6584492548792           1.4416122252015517       0.02617654610879641
1.6589497190422797        1.4466346284974756       0.035181215570204434
1.6627356970049882        1.4492001678987085       0.03692780532720541
1.6025771781975875        1.3721548421575172       -0.06941688880344736
1.6294131082599241        1.4010049901940833       -0.03661376376459525
1.6081948795756527        1.3769382641032057       -0.061559801123300055
1.6145651304465072        1.387539596445914        -0.054950676320215684
1.6125783671587357        1.3811595863942108       -0.05575438055437638
1.6248309890988342        1.3962889317513867       -0.04209704633806482
1.619850220880651         1.3912851554494137       -0.04798347385512187
1.6349253970588424        1.3989767793509191       -0.031113192988017922
1.64954860162783          1.430915106144243        -0.003039043956177
1.646814709242164         1.4215780430414315       -0.01515229767000007
1.6488148051523597        1.4264830273105031       -0.009196914799846146
1.6398685509154358        1.4001842955662525       -0.026516479706180627
1.640854833865105         1.404830355631571        -0.02553174505593151
1.644385945253551         1.4078746438963268       -0.022107987349110122
1.647150056577888         1.4121182043062164       -0.018710606829135185
1.6499028624121828        1.4172150360125715       -0.014050492615011413
1.6627928715385552        1.4617978023265858       0.04830946416945928
1.6655546764548317        1.4769961215806908       0.047244040945615545
1.6663885611448555        1.47165981457275         0.04691853345611006
1.6675149418616262        1.4656755171291194       0.0454068406546499
1.6703573514848222        1.4842633267726904       0.03803347417474413
1.672220227698597         1.4881926754496682       0.021709613042776525
1.6695253326576494        1.479883699994212        0.04489630701131506
1.6749166417189578        1.4870887128561816       0.0329454988165247
1.6768865220721416        1.4909808416272057       0.016045225815409212
1.549696992218745         1.2558387468208438       -0.209503879289959
1.5534707215418713        1.2617594967687498       -0.18543641561832502
1.550355576559572         1.2465051696648963       -0.21187781154582347
1.5539627879448095        1.2529231025158545       -0.18568237114396466
1.559048270659853         1.2656226438772273       -0.13522356405110278
1.5586671078363046        1.275692882078326        -0.13791100151584315
1.565409060708624         1.287683823719461        -0.10878684611349765
1.5660015912186294        1.279748251930599        -0.10402468376690761
1.5997137744829297        1.3624919156701267       -0.06850369612943567
1.604659033476012         1.3674776116620269       -0.061697662406770874
1.5968673953560337        1.3523840623072496       -0.06668646545423416
1.6017730526694933        1.3572817892995708       -0.05962676906474267
1.598835297808727         1.3465741833882603       -0.05663247680567136
1.5836406358746755        1.3302944896825664       -0.08064378181786101
1.5930580550630864        1.3411533206762134       -0.06566249477239726
1.5888676973382592        1.3357432170991468       -0.07127971934154055
1.5735196056921013        1.3048486414897553       -0.09072249379462209
1.5760629622113818        1.3114966979912315       -0.08742703453152424
1.5822504756570894        1.3176906411381544       -0.07472428352067116
1.5863277447005013        1.324283322321974        -0.06827126269348043
1.575585254075477         1.2972315797042675       -0.08031586882631346
1.5732677715950094        1.2902724772552927       -0.08389678317069266
1.6533263133904148        1.4327691329988126       0.0059210217748944735
1.6575902583367315        1.4359828208644223       0.015435600792444921
1.6649488938479333        1.453968112957484        0.04058581353098597
1.6620744379542316        1.4382944511180327       0.020745061809636697
1.6639886356761457        1.4440519546575763       0.029024222421126792
1.6676616028052533        1.4483551122295153       0.03264437174926472
1.6105636564290167        1.371648696176805        -0.05332611186659186
1.6311182431686766        1.394777589148571        -0.03469621990724415
1.615392288447671         1.3759428157786575       -0.04782636913460097
1.620359208641455         1.3830875216042235       -0.044618893772436996
1.626744404617547         1.3889696925165635       -0.03849035555400964
1.6381869788697223        1.3941464752360633       -0.02717329187176925
1.6434880693451972        1.397175356307526        -0.022858765985922822
1.653489501208426         1.428050593109557        -8.616830913658124E-4
1.6527691876488624        1.4224845180013674       -0.007774481542814807
1.6457100626124548        1.4024988199596249       -0.021515845927767036
1.649405577005223         1.4071423063169306       -0.018102158147719538
1.6520931652268567        1.4122505582067861       -0.014466363243820285
1.6548269113477645        1.4167214825483148       -0.009947599113564971
1.6688408250884161        1.4581859065392477       0.040811508735404865
1.6709579856019154        1.4754986080263965       0.0438402264198253
1.6719162840302078        1.4696662799195752       0.04275673276574409
1.672443084016265         1.4621756147732228       0.040810873354309725
1.6750118402886238        1.4830613876259595       0.04029293096825228
1.6755321126117162        1.4780225220000234       0.039944476796032774
1.679588250965928         1.4898077434402246       0.0256508953120024
1.6816836161239843        1.493682908103277        0.009812190124245819
1.6785989901571545        1.4853036538326279       0.03546916309343642
1.684411437579572         1.4924511996056695       0.017085974718965138
1.6865938201544626        1.4963247373705362       0.00419463468589593
1.5513903113293899        1.2368929751740372       -0.2136809234947002
1.5528385578946144        1.2269719518910702       -0.21486933043119566
1.556061143689443         1.2339275464583357       -0.18490157190742296
1.5547980277170035        1.2435651559399483       -0.1856271344880642
1.5547419580894213        1.216742455672174        -0.21527766237213636
1.5578943468829676        1.2240847731582158       -0.18249121054340792
1.5595764371040965        1.2587787704086104       -0.13276743828003756
1.5605369120590962        1.2497237369434906       -0.1288505753192983
1.567235932850768         1.262639574634179        -0.09473652964943054
1.5663610342090752        1.2708314041437367       -0.09983039505810659
1.575257590271884         1.2824232327109375       -0.07345609843783797
1.5735166722562082        1.275361793217049        -0.07647607678651201
1.6068227290947121        1.3619390588356752       -0.05312088665521284
1.6120262406624868        1.3660474481871112       -0.04650714370819645
1.6038114282340907        1.352064921010518        -0.050403585652030895
1.6085451692104875        1.3562276493143908       -0.044568895122331566
1.6057139659513437        1.346356869337146        -0.04003767533855339
1.6011115020002076        1.3411639726497848       -0.04553167628060036
1.5912038201116696        1.3304201712380817       -0.06029402632617337
1.5964811321360708        1.3355255527027028       -0.051579566339388906
1.5937970767140865        1.3245389283509597       -0.04759075637960903
1.5817143792240154        1.3045210934341964       -0.06672286221422853
1.5858574786489883        1.311763964916588        -0.05940361777591375
1.5900077759121394        1.3181044976159084       -0.052529398392041134
1.5855948058793103        1.2975786920160368       -0.049490427064964426
1.5814200862060939        1.290546358599518        -0.05873893845688493
1.6578107794526573        1.4309871021239065       0.007440190827715634
1.6617553298941834        1.4332524419244277       0.0129118571840311
1.6660599557922966        1.4349909211303737       0.01636770284794903
1.6707836649462902        1.4522084838968512       0.03441869787600412
1.6671215590333726        1.4394910020959266       0.022109961030597456
1.6689126945885147        1.443748547778344        0.026732559591919326
1.6725778764805694        1.446463312324655        0.02783740033142122
1.6192815629643833        1.3683902691744299       -0.03682637754167103
1.6341744138855328        1.38790854584104         -0.02949665646851885
1.6239393195369933        1.375150439347882        -0.034778909591699
1.6291128059658497        1.3818466108970762       -0.032294755116459385
1.6410349746272108        1.3874874457484012       -0.021805933735546627
1.6451389845149125        1.3923641488785519       -0.020246458592408065
1.6491484476933826        1.3974241264772298       -0.018297963327660514
1.6580657091519102        1.4252579262615799       2.6234710694454574E-4
1.6582165630790375        1.4201713459906902       -0.0044382767134241155
1.659433975558782         1.4155853907302243       -0.006966064364635443
1.6517945496279196        1.4025551304632367       -0.016620637118633267
1.6549098488877756        1.4074655400682379       -0.013689640370165372
1.6573532075648452        1.4118160444461363       -0.01041822308500759
1.6741223534717509        1.456452677229807        0.03609274767570972
1.6775089603466105        1.4598063508932124       0.03608394023301871
1.6764484385207539        1.4719756398220594       0.03892924558863802
1.677245384414251         1.4652873291871817       0.03810739617771766
1.6798209636840558        1.480719040167693        0.03485486379863218
1.6801708345411586        1.4751537262105987       0.03438228770872765
1.6834958643123599        1.487739216427481        0.02802569777184322
1.6838951137400622        1.482562323307227        0.02906913668808714
1.6894709184405037        1.4949949886226521       0.008676279733975221
1.691626274536299         1.4988968019856521       1.4065592184428973E-4
1.6887463426782932        1.4905170281693294       0.018246650148777868
1.6946695112667096        1.4975657208711692       8.347796789252361E-4
1.6967909748030736        1.5013856298416226       -0.002362488924292863
1.557153301239626         1.2062049547948623       -0.21479104910118788
1.5601928891350203        1.2135376665564297       -0.1803460840823511
1.5630923492676216        1.2310411814063769       -0.12478709495866407
1.5615186392347884        1.240557691172038        -0.12776065400291456
1.5650018427361925        1.2217963781966263       -0.12159576954362082
1.5675810915154877        1.2542884250865856       -0.09310917029431305
1.5698301349389183        1.2453125846960456       -0.08527696817336979
1.575898451419047         1.2590596372368474       -0.0645672869025049
1.5854397776700195        1.2838312175544941       -0.04122997636244086
1.5759802714164397        1.2682840518772094       -0.0657315647004073
1.5823695151425228        1.275791895564432        -0.0472889301286921
1.6147102002549583        1.359450694003301        -0.035809294874073284
1.622748628953738         1.361564943442601        -0.021103889892431598
1.6125351721791739        1.3505471189792577       -0.030196902004961133
1.6113079919236042        1.3414633452790827       -0.021788686689049482