% Model:              physical-model-test-0514-0521.mph
% Version:            COMSOL 5.2.1.152
% Date:               Nov 8 2016, 15:25
% Dimension:          2
% Nodes:              19878
% Expressions:        1
% Description:        曲面
% x                       y                        Color
0                         0.029761904761904774     297.35926782106145
0                         0                        297.3604080373801
0.01940531280178238       0.020264936817175543     296.8745535572173
0.0298827141341097        0                        296.6163464929474
0                         0.05952380952380955      297.35358931646994
0.021824565080287902      0.04540677511456767      296.81059855048824
0.05988510597706842       0                        295.8887995888365
0.0453192847945143        0.02615600420940528      296.2380585326767
0                         0.08928571428571432      297.3445348122431
0.02336333477590256       0.07433776950986852      296.76493124800623
0.08988749960254627       0                        295.179743917338
0.07652912793559043       0.02394788187364072      295.49162080860066
0                         0.11904761904761907      297.3318569109566
0.024334089878932708      0.1037152578311098       296.7292912777394
0.11988989322802412       0                        294.4890928421031
0.10534842773949053       0.024002465444159442     294.8200478088159
0                         0.14880952380952384      297.31566050296806
0.024352982412837093      0.13371916799308134      296.71306066726333
0.14989228685350198       0                        293.81602506004566
0.1349696526558062        0.024076213856981856     294.1468729126175
0                         0.1785714285714286       297.2959353119101
0.024224811019394017      0.163517392087677        296.6966941726028
0.17989468047897983       0                        293.16008754785713
0.16487360189406483       0.024142487900833853     293.4844534681674
0                         0.20833333333333337      297.2727512003678
0.024106237871825142      0.19328591783956442      296.67633445358825
0.20989707410445768       0                        292.52088972149534
0.19484169305031818       0.02418778352110645      292.83749828982747
0                         0.2380952380952381       297.2461804083264
0.02415405373806389       0.2230699907572206       296.64808650285755
0                         0.2678571428571429       297.2163059799946
0.024173629766721987      0.2528235690779398       296.61693320238936
0.23989946772993553       0                        291.89809347635617
0.2247890633582593        0.024195040028878706     292.2075131173687
0                         0.2976190476190476       297.183226504164
0.024182690576924043      0.2825718835469676       296.58251584455655
0.2699018613554134        0                        291.2913990912791
0.2547990950754639        0.02421717084297149      291.59243047771423
0                         0.3273809523809524       297.14705623869395
0.024193100589120227      0.31233318547565403      296.54462827630573
0.29990425498089124       0                        290.7005810048008
0.28482022719082517       0.02425006537661434      290.9931157775632
0                         0.3571428571428571       297.1079269249417
0.02419588260723419       0.3420950763360263       296.5036436983051
0.3299066486063691        0                        290.1254592102663
0.31484532416810157       0.024272944714910566     290.40952663654247
0                         0.38690476190476186      297.0659775727753
0.02420058683835534       0.3718017370130315       296.4595579370985
0.35990904223184694       0                        289.56589492768126
0.3448704737242652        0.02428453886536172      289.8415815620355
0                         0.4166666666666666       297.0213835026379
0.02420045414457185       0.40156679898197756      296.41254735976554
0.3899114358573248        0                        289.0217895031012
0.3748898189998762        0.024289635003840532     289.2892678224143
0                         0.4464285714285713       296.9743304418018
0.02420015017956864       0.4313347793342568       296.3627628161416
0.41991382948280265       0                        288.4930802462109
0.40490300338119284       0.02429179268446705      288.75250122380163
0                         0.47619047619047605      296.9250280569473
0.024200121192889543      0.46109669333538994      296.3104259933429
0.4499162231082805        0                        287.9797377482719
0.4349109093238415        0.024292610049916123     288.2312112510383
0                         0.5059523809523807       296.87371084867
0.024199562768319742      0.4908586925661027       296.2557901260734
0.47991861673375835       0                        287.48176256020446
0.4649157984101954        0.02429291776518665      287.7253383927766
0                         0.5357142857142855       296.82063889815385
0.024196052061685014      0.5206237059215879       296.1991823961593
0.5099210103592362        0                        286.9991821198311
0.494919219070141         0.024293034789391137     287.2348679641746
0                         0.5654761904761902       296.766097947791
0.024187848249235058      0.5503839474003118       296.14096226546735
0.5399234039847141        0                        286.53204766809023
0.52492200255493          0.024293078747092207     286.75982505837106
0                         0.5952380952380949       296.71040114724343
0.02419039388580518       0.5801469677252276       296.0810274222103
0.5699257976101919        0                        286.0804312218538
0.554924534183563         0.02429309466971134      286.3002655141688
0                         0.6249999999999997       296.653891191798
0.024197673197996518      0.6099212246139982       296.01987251580766
0.5999281912356698        0                        285.64442261327383
0.5849269737777127        0.02429310016277453      285.8562685612006
0                         0.6547619047619044       296.596939815837
0.024197254564763224      0.6396993391963557       295.9582356533817
0.6299305848611476        0                        285.2241265954624
0.6149293819226265        0.024293101962441527     285.427931538681
0                         0.6845238095238091       296.5399473477056
0.024194406255037416      0.6694720187768413       295.89641406554966
0.6599329784866255        0                        284.81966001436035
0.6449317799251464        0.02429310252361243      285.01536596398586
0                         0.7142857142857137       296.48334314743715
0.024176500667074566      0.6992239102074261       295.83524142910824
0.6899353721121033        0                        284.43114904885704
0.674934174817016         0.024293102690853264     284.61869430597335
0                         0.7440476190476184       296.42758524432094
0.024174747722641422      0.72897566068656         295.77429127012095
0.7199377657375812        0                        284.05872651642454
0.7049365686535967        0.02429310283815181      284.2380471034881
0                         0.7738095238095231       296.37315771813735
0.024187497878827742      0.7587282196786325       295.71410833795676
0.749940159363059         0                        283.7025291715455
0.7349389619498939        0.024293103237838065     283.8735602700131
0                         0.8035714285714277       296.3205725370229
0.02418908961537006       0.7884961536096171       295.65592043263626
0.7799425529885369        0                        283.36269409785325
0.764941355178696         0.024293103991503754     283.52537266607936
0                         0.8333333333333324       296.2703607415251
0.02419718249310154       0.8182596767438317       295.59983338034505
0.8099449466140147        0                        283.0392677489153
0.7949437489231689        0.024293104861938874     283.19362619618346
0                         0.863095238095237        296.22307383697546
0.024198380533342917      0.8480225021102945       295.5468066910335
0.8399473402394926        0                        282.7314994418619
0.8249461433159612        0.02429310538104007      282.8779488012833
0                         0.8928571428571417       296.17927780061774
0.024198593755083875      0.8777889410183969       295.4972696796317
0.8699497338649704        0                        282.43940415696204
0.8549485377945532        0.02429310524159758      282.57781202636494
0                         0.9226190476190463       296.1395465155894
0.02419908291427529       0.90753800333221         295.4518351139677
0.8999521274904483        0                        282.16330125440834
0.8849509317655032        0.024293104573355484     282.2935217023797
0                         0.952380952380951        296.1044595592757
0.024196126848063736      0.9373032153470513       295.41118365721786
0.9299545211159261        0                        281.9034850503266
0.9149533252246572        0.024293103815718527     282.02538180727214
0                         0.9821428571428557       296.07459216027763
0.024194132757764913      0.9670711853362626       295.375834572295
0.959956914741404         0                        281.6602275500515
0.9449557185012774        0.024293103273300646     281.77367612004576
0                         1.0119047619047603       296.05050998850686
0.024177153397993832      0.9968293189401911       295.34688687450483
0.9899593083668818        0                        281.4337772171133
0.9749581118400767        0.024293102976581188     281.5386655951799
0                         1.041666666666665        296.0327603418923
0.024176743113855634      1.0265858417355922       295.3240046218596
1.0199617019923597        0                        281.2243577159884
1.0049605053012092        0.024293102841328174     281.32058693227185
0                         1.0714285714285696       296.0218653133043
0.02419637582257894       1.0563508808613382       295.30765531913113
1.0499640956178375        0                        281.03216684020725
1.034962898850905         0.024293102786826098     281.11965140340817
0                         1.1011904761904743       296.01831394118074
0.024196314501007912      1.0861264625663682       295.29956701843736
0                         1.130952380952379        296.02255321523666
0.024187312606225198      1.1158988220597117       295.2999391165053
1.0799664892433154        0                        280.85737562946474
1.06496529244629          0.02429310276675697      280.93604387736383
0                         1.1607142857142836       296.0349818106153
0.024186317036841314      1.1456472282204304       295.3087187117672
1.1099688828687932        0                        280.70012766784805
1.0949676860610589        0.024293102759872034     280.7699220310399
0                         1.1904761904761882       296.05594300606947
0.02419261768115867       1.1754189752098712       295.32634551741927
0                         1.220238095238093        296.08571812825215
0.02417343583116501       1.2051853915771842       295.35412088596917
0                         1.2499999999999976       296.1245232103485
0.024174246864873364      1.2349470722488434       295.3909721057311
0                         1.2797619047619022       296.17250629616655
0.024194617833268713      1.264690121426122        295.4370909952354
1.139971276494271         0                        280.5605385523739
1.124970079683033         0.024293102757643875     280.62141573818286
0                         1.3095238095238069       296.22974146308513
0.0241967785678333        1.2944542614264831       295.49377536556403
1.183312971117809         1.0000843839168236       265.3590308997422
1.1765038793014386        1.0003438934653313       265.400210173902
1.179611087236238         0.9942507128885509       265.61564809774626
1.169973670119749         0                        280.4386955186442
1.1549724733074382        0.024293102756957563     280.4906266228438
1.1695751438048612        1.000788294639681        265.4358949370571
1.1725945301717926        0.9945234975603422       265.6584491437997
0                         1.3392857142857115       296.29623255934433
0.024197225711046627      1.3242228168579566       295.56057132934535
0                         1.3690476190476162       296.3719126729323
0.024197214870221084      1.353989149838273        295.6374015449096
1.19                      1                        265.31276235179155
1.1865241812430265        0.9941490345663286       265.56785949339115
1.1999760637452268        0                        280.3346572089217
1.184974866932605         0.024293102756755006     280.3776277631019
1.1625297172082967        1.0014276502298773       265.4656225131333
1.1654496684267108        0.9949795439336849       265.69599190927426
0                         1.3988095238095208       296.4566464413113
0.02419670096391038       1.3837586505633048       295.724180226946
1.1966562755455428        1.000083609423913        265.2609503914886
1.1933800207056866        0.9941647439432933       265.51680286244533
1.2033758266469303        1.000337786487169        265.20272247665395
1.2002398258181435        0.9943446843839768       265.4601283835341
1.2299784573707047        0                        280.24845356750404
1.2149772605579965        0.024293102756697414     280.2824635296274
1.1553434316884827        1.0022759579466143       265.48896753359935
1.158153058988194         0.9956284569576911       265.72808481584076
0                         1.4285714285714255       296.5502349460009
0.024194287022031677      1.413519605659081        295.8207369456911
1.2101548177452368        1.0007675581582451       265.13779042124406
1.2071438199258704        0.9946554192511056       265.39876954044576
1.2169891437049158        1.0013779483387715       265.06581863693987
1.2141096816063683        0.9951229702980622       265.3314733390255
1.2238991831574841        1.0021771597040023       264.98618701710114
1.2211595330763128        0.9957653752241874       265.2572580829205
1.2599808509961825        0                        280.18008584894585
1.2449796541834512        0.024293102756681572     280.2051495438127
1.147963051950244         1.0033554032687428       265.5054253732681
1.1506736961185908        0.9964821042646351       265.7545116984697
0                         1.4583333333333302       296.65241749560903
0.0241751410195388        1.4432691629327494       295.9272236896138
1.2309587785328038        1.003184457181968        264.8974748486506
1.2283271502840094        0.9965846842914017       265.17569522491664
1.2899832446216604        0                        280.12952672634503
1.2749820478089233        0.024293102756677332     280.1456727414368
1.3199856382471382        0                        280.09672048934317
1.3049844414343996        0.024293102756676233     280.10399152998997
1.349988031872616         0                        280.0815833244571
1.334986835059877         0.02429310275667595      280.0800360306162
1.1403898705881974        1.0046851232454352       265.5141948992711
1.1429864828108045        0.9975578688361706       265.774809027328
0.9308834942061354        1.2094695000456666       256.1432152658081
0.9294148550613208        1.2168296539633805       255.58547996244644
0.923821849525572         1.2118435942423906       256.594049613152
0                         1.4880952380952348       296.76288270981405
0.024173920150027502      1.473020235931524        296.0424166442081
1.2381703460925233        1.004414855071655        264.7989375338221
1.235646332884863         0.9975967895337147       265.08582193519027
1.379990425498094         0                        280.0840036735691
1.36498922859382          0.024293102820676205     280.0737083988178
1.132626853200253         1.0062852496932293       265.5144250605901
1.1350819107167196        0.9988754733210787       265.78831154540507
0.9326144046364535        1.2019313445572781       256.7140235477676
0.925271395626305         1.2041344643354985       257.1215688464636
0.9281844571744554        1.224041221515218        255.05042623088778
0.9226044089301144        1.2193477623039832       256.0913947285067
0                         1.5178571428571395       296.88127518936545
0.024196862876526698      1.5027734166927402       296.1658179890082
0                         1.5476190476190441       297.0071949901702
0.024198788455519146      1.5325358223263374       296.2982944391827
1.2455305000174202        1.0058834942196553       264.68985839793396
1.24314396082877          0.9988195522466358       264.98664928545844
1.4099928191235718        0                        280.1038426694228
1.39499162194764          0.024293103072056926     280.0848832212359
1.1246624215382117        1.0081809959509427       265.5051802282012
1.1269554910335773        1.0004575125832482       265.79420990228283
0.934663581831408         1.1940893974300466       257.2980065042576
0.9269670996667728        1.1961574897231178       257.66963753398915
0.9271771596989086        1.2311008168820081       254.5531217383349
0.9215951247511861        1.2266793474652589       255.62381079998576
0                         1.5773809523809488       297.140214274836
0.024198907612466156      1.5622998766705007       296.43885317719963
0                         1.6071428571428534       297.2798815008479
0.024199208528651824      1.592058560571782        296.5869402799818
1.253068655513199         1.0076144046537228       264.5689237605425
1.2508552580769023        1.000240366809736        264.8783442615791
1.4399952127490496        0                        280.14093464972916
1.424994015307955         0.02429310356497581      280.1134079897679
1.1165004277507085        1.010396753989327        265.4854147810679
1.1186018618269944        1.002331522059955        265.79150947058173
0.9370708794752186        1.1859312957576726       257.8884035241272
0.9289795711781347        1.1878755531988572       258.2296172508718
0.9263779483356334        1.2380108563257346       254.11118062286326
0.9207815522383883        1.233859157863619        255.20360370165744
0                         1.636904761904758        297.42572906032535
0.024199566191253477      1.6218203284151431       296.7421132592379
0                         1.6666666666666627       297.5772808058893
0.02419957848079382       1.6515822342669515       296.90386739151745
1.260910602646923         1.0096635818527833       264.4328386044443
1.2588319523616807        1.0019227076210047       264.75792622947523
1.4699976063745275        0                        280.19508775384367
1.454996408991426         0.024293104111688984     280.15910365567726
1.10814998290277          1.0129571966883737       265.45398912937685
1.1100127440246783        1.0045295848031843       265.77905233849873
1.0996017229974748        1.015895300094569        265.40952944785056
1.1011671474373197        1.0070887116426717       265.7555794398281
0.9398773567260317        1.1774576484115074       258.4788896149399
0.9313801936463267        1.1792646141885863       258.7943103918789
0.9257675581565341        1.2448451822771947       253.73933025643439
0.9201507983997353        1.2409133935076233       254.84448299698224
0                         1.6964285714285674       297.73405889264575
0.024199554040375163      1.6813441604541781       297.07168774262806
1.5000000000000053        0                        280.2660846073991
1.4849988030419385        0.024293104368421567     280.221765267212
1.269068704323998         1.0120708795007498       264.2796414248703
1.2671188115834138        1.0039573969708386       264.6213064323338
1.5300023936254832        0                        280.3536831008247
1.5150011971443706        0.024293104193380984     280.30116269745935
1.0907034727266829        1.019306695916516        265.34930933703066
1.0920092553660583        1.0100635119516115       265.7194200714492
0.9431211428149862        1.1686888901786423       259.06331502721497
0.9341994294622888        1.170309532698062        259.36073826058026
0.9468238008320867        1.1596893350213409       259.63424279630755
0.9375055061912055        1.1610635967382623       259.9195237952808
0.9253377864864323        1.2516241733676452       253.4580453227485
0.9196880562681319        1.2478711666987363       254.56131610292616
0                         1.726190476190472        297.8955900723494
0.02419933219424491       1.7111062332438185       297.2450733791973
0                         1.7559523809523767       298.06141023213183
0.024195661801099052      1.740871303815994        297.4236174587711
0                         1.7857142857142814       298.2310718271049
0.024194306948780844      1.7706365706929725       297.60668448855387
1.2775423516730962        1.0148773567556426       264.1073165204761
1.2757311341895992        1.0063833287932846       264.4665621798965
1.5600047872509606        0                        280.45761726758155
1.5450035909866262        0.02429310375399719      280.39704147071484
1.5900071808764382        0                        280.57759826731933
1.575005984549832         0.02429310331621938      280.50912369286976
1.081425011186124         1.023263631606523        265.2703564694386
1.082477445722997         1.013524522392551        265.66828950583607
1.0717768448053775        1.0278327898384176       265.16937618313676
1.0725474697497197        1.017544378928811        265.59940606020183
0.9510259669963492        1.1504730968288674       260.1887939666089
0.9412652589466876        1.1515169284187579       260.4720865295821
0.9250836094237348        1.2583437244615532       253.2870664197379
0.9193805236232407        1.2547560864093843       254.36889642069613
0                         1.815476190476186        298.4041433907807
0.024183846070212553      1.8004049394479278       297.79407522419666
1.2863111099073403        1.0181211428485293       263.913970206552
1.284681784671093         1.0092161190649176       264.2926542834263
1.295310665066112         1.0218238008699592       263.6985389183696
1.293923044698097         1.0125275602821269       264.0965008236094
1.620009574501916         0                        280.71331547780227
1.6050083779984925        0.024293103021329785     280.6371090886137
0.9557778578530772        1.1410444106620974       260.725645836284
0.945621022566067         1.1417700720707489       261.00527606421116
0.9611168005859262        1.1314429671414592       261.2419412277974
0.9504900291398668        1.1317312869617597       261.5294098725423
0.9670927828059397        1.121691338284108        261.7365276672645
0.9560022195906934        1.1214704834982696       262.03603219413526
1.06187506964857          1.0330323250484215       265.04386188026893
1.0622343312237512        1.0221846683874733       265.5099536948228
0.9249999999999998        1.265                    253.23859107789522
0.9192173228957756        1.2615974600084687       254.27915972906337
0                         1.8452380952380907       298.580215753441
0.02417358256003814       1.8301595709824428       297.9850245561393
0                         1.8749999999999953       298.7589096267454
0.024186357801670423      1.8599101831695526       298.1787097217039
1.650011968127394         0                        280.864437697324
1.6350107714714086        0.02429310286689959      280.7806761483635
1.6800143617528716        0                        281.03061445677156
1.6650131650075315        0.024293102798684        280.93948338657333
1.3045269032601219        1.0260259670389966       263.4586690076568
1.3034819701808418        1.0162536498022008       263.8800786660845
0.9737974647156424        1.1117633733841148       262.2108925904879
0.9622454439571247        1.1110285214468065       262.52180684682816
1.0517935381207089        1.0388938879755611       264.89083613244605
1.0515716632104197        1.0275110479252285       265.39657318104327
1.0414673339091975        1.0455391900498903       264.70431789586826
1.0405665525275107        1.0336320549615083       265.2540416793466
1.0307252447047177        1.053206344935388        264.47349581009377
1.0292449544331055        1.0406851448034888       265.07512469274076
0.9813010743777247        1.1016912174924198       262.6636565450653
0.9692778193802029        1.100404793258371        262.98765850938906
0.9896664616931307        1.0915310591793153       263.09276231621004
0.9771856006208627        1.0896725094288657       263.4295737200692
1.0196939553036262        1.061970812098662        264.19059393476465
1.0178870482107611        1.0487408812603993       264.85165982769973
1.0090288669788718        1.0714168162958126       263.86376043518845
1.0065205791631373        1.0581015348913594       264.5660932210126
0.9989182213636699        1.0813896683920627       263.4943283496633
0.995832941462968         1.068301994418689        264.2258799707574
0.9860239883053581        1.0789264942378114       263.84377798508825
0.9250849876752656        1.2717109049304745       253.3172582980163
0.9191917776617314        1.2684499649959629       254.2994164929503
0                         1.9047619047619          298.93986793235865
0.02419751974953417       1.8896806950097726       298.37542268084167
0                         1.9345238095238046       299.1227606698178
0.02419777631306725       1.91945568981137         298.57487163414777
1.710016755378349         0                        281.2114774376561
1.6950155585912408        0.024293102771652697     281.1131707097849
1.7400191490038268        0                        281.4066419894234
1.7250179521999545        0.02429310276172965      281.30136088893255
1.3139555894287023        1.0307778579011304       263.1912810752951
1.313250926748245         1.0205920648023201       263.6350141236617
1.4317363684395819        1.1564250112887746       255.66523848856139
1.4271672102154471        1.1467768449134352       256.3198423833929
1.4374180595563224        1.1476890976328373       256.30062536689917
1.4356933041226396        1.1657034728235676       255.02061217927954
1.4414355784850794        1.1576011700988176       255.6502073029446
0.925346401531714         1.2785452138332063       253.52313098241902
0.9193055266325203        1.275380791847432        254.43179652891578
0                         1.9642857142857093       299.3072894740679
0.02419719573726236       1.9492317541278597       298.77649567178605
0                         1.994047619047614        299.4931849734163
0.024195689440888617      1.978994250145421        298.97989082738405
1.7700215426293047        0                        281.61570873636356
1.7550203458194116        0.024293102758301034     281.5036611273587
1.323557032950629         1.036116800639661        262.8938770480053
1.323317836826563         1.0254294361158833       263.36467963258536
1.421967675015894         1.1368750697650123       256.9749473732254
1.4327632077370545        1.1374067626261375       256.9602456937055
1.4161061121042733        1.1267935382513186       257.6247646069117
1.427399772517325         1.126789963249158        257.6249496722901
1.4391046999384174        1.174601723088374        254.38916180294132
1.444888243985548         1.16711209817168         255.01353382805783
0.9257941527666306        1.2855004948159197       253.84647164756095
0.9195673856232977        1.2824335912409597       254.6726596468084
0                         2.0238095238095184       299.6802043096186
0.024184951307254968      2.0087509016123173       299.184971778783
0                         2.053571428571423        299.86813814775115
0.02418389222239179       2.038518249824266        299.3912949772112
1.800023936254782         0                        281.83826526172834
1.785022739442903         0.024293102757176332     281.7196647132844
1.333308661809277         1.0420927828659774       262.56305104297894
1.3335894615750166        1.0309303463058346       263.0613681327191
1.343236626711599         1.048797464783481        262.19265121760577
1.344051285378824         1.0371894214971478       262.719628723192
1.3533087826063048        1.0563010744549777       261.7772187015691
1.354696159670328         1.0442581769590482       262.3353909849033
1.3634689409224687        1.0646664617812656       261.3110627068195
1.3654670536083415        1.0522166016958956       261.90280566405477
1.4094608100498809        1.116467334056612        258.27309674304286
1.4212356903991943        1.1158351572923115       258.2936542602879
1.3736103317116228        1.0739182214633016       260.7898695314103
1.3762479927451787        1.0611309857994142       261.41624727643494
1.3835831838083956        1.0840288670903429       260.2114923046493
1.386846387564941         1.07103267182025         260.8712521056712
1.3930291880109524        1.0946939554343025       259.58941179429223
1.3969356944376063        1.081847823024304        260.26833269257014
1.4017936551761243        1.1057252448529993       258.9308852286593
1.406157271896836         1.0931995537927244       259.6238847703108
1.4141647563970392        1.1046152208082316       258.9613289238683
1.4420428033393258        1.1831499829880652       253.77170924830207
1.4478520779262283        1.1762406850498999       254.39245143588053
1.4446032460333065        1.1915004278291121       253.1605748968325
1.4504033366666615        1.1850540078856158       253.78598259571564
0.9264384568250253        1.2925737730321052       254.2687447156841
0.9199915447466464        1.2896276104179016       255.01165582193445
0                         2.0833333333333277       300.05680479471295
0.024190527526184103      2.0682969892982217       299.59870883841154
0                         2.1130952380952324       300.2460471294089
0.024189769601028394      2.0980893897757813       299.8072832744626
1.8300263298802597        0                        282.07388785463735