% Model:              physical-model-test-basic-70天单管.mph
% Version:            COMSOL 5.2.1.152
% Date:               Nov 6 2016, 09:29
% Dimension:          2
% Nodes:              2602
% Expressions:        1
% Description:        曲面
% x                       y                        Color
0.9260479750877295        1.2414558171789256       253.66805777144634
0.9252468953727838        1.2535634974642442       253.1659889190452
0.9143230749389178        1.246961680867067        255.1294448718664
0.9249999999999998        1.265                    253.0196747315098
0.9152945105831136        1.2590399175405138       254.68192805071521
0.9275025525770999        1.228666955860238        254.45919189883162
0.9147937016013308        1.2337171818471981       255.7034493741481
0.9297222699296488        1.2151953493193108       255.42810005924366
0.9165896410886324        1.2194524231741426       256.42464012899836
0.9328318617297725        1.2010504209660047       256.4861334740705
0.919816613909457         1.2046502229717033       257.21698570200687
0.9252673291109115        1.2769001245342049       253.251448528223
0.9146587263528081        1.2717539330985548       254.8321015494296
0.9370459518230104        1.1860110798220833       257.5701035139642
0.9223144108539137        1.1891227708216756       258.2326972131695
0.9262372292276231        1.2905773484645804       253.94323703369176
0.9137242207094871        1.2851402415849487       255.42874167317015
0.9428260879738316        1.1694486671276632       258.6828082297662
0.9253785704149606        1.1729860821903122       259.2522403274597
0.9282295498735306        1.3062459869634078       255.06957415405395
0.9135240134941758        1.300961415788261        256.37120271030085
0.9506232813261253        1.1513171668327682       259.7901891633376
0.93039011967204          1.1532667997399886       260.4024679340244
0.9316766228276983        1.3241103443256492       256.5224034688127
0.9143689305495798        1.319028720079511        257.6046358462245
0.9609836118411694        1.131671481090189        260.8681946543383
0.9380178087440111        1.1315508025930079       261.5309221858001
0.9371372080765431        1.3442805679891014       258.14560301052217
0.9169241442795902        1.3398432442823898       259.0465554150632
0.9747978680620261        1.110361575249387        261.9171221710121
0.9494163096055508        1.1079633243540403       262.60489123236624
1.2014365025143556        1.0002468953718593       265.3762536031187
1.19                      1                        265.41942915818817
1.196170135334409         0.9902698948629144       265.74664187888703
0                         0.15625                  297.51528900939155
0                         0                        297.57268280763475
0.10137854561227892       0.10649200624714909      295.15594520664996
0.1571537994987613        0                        293.96403988014447
0.9450381869198925        1.3660876359032426       259.77279972950333
0.9211409569272021        1.3630620226382346       260.6101498097765
0                         1.40625                  296.0153686010251
0                         1.25                     295.6770293470315
0.12727200229753904       1.3252282547826488       292.0017708517208
0                         1.5625                   296.6260563128013
0.12632170506390059       1.4825493206637705       292.7090394578275
0                         2.5                      302.7542658789457
0                         2.34375                  301.63788499388147
0.10683404486559245       2.3985449092817532       301.4009516563801
0.1556654073081562        2.5                      302.34291013996625
0                         1.09375                  295.62392917751885
0.12774444912720503       1.1680323793336667       291.7298409875703
0                         0.9375                   295.8138045487749
0.12737667950670203       1.0114423089031814       291.87569105516013
0.9931499572471577        1.0875878790268148       262.89656966342915
0.9654317945765581        1.0830072307679846       263.5958934633787
1.0163273624633085        1.064843024175901        263.7572203868902
0.9864480999757598        1.058168617860173        264.45053717515333
1.0406091376720559        1.0461224765926995       264.38012146254346
1.0117585987296627        1.0360736860577284       265.1034962037689
1.0648288469175953        1.031425210187355        264.81974213348997
1.0386865787049164        1.0185227437928837       265.5528956922331
1.0881279317394965        1.020363368016302        265.11265935286457
1.065506292937355         1.0057231845920063       265.8309891288695
1.1780441801122914        1.0002698385698887       265.4495470269354
1.1830504645940316        0.9901266297133919       265.79369071711477
1.1101042780260535        1.012330900958859        265.29906696112374
1.0911116963447944        0.9971923100655522       265.9744862978296
1.1304534217134405        1.0067768309884593       265.40651449886764
1.114990293643144         0.9923044238280045       266.0129158370294
1.148487029760416         1.0032717567745364       265.45522765173035
1.1359901300978357        0.9897084178466315       265.9996116559121
1.1642802547671027        1.0012510763905282       265.46482235540935
1.1699811849370372        0.9891892068916115       265.87375057460827
1.1541646154775895        0.9888409655679082       265.94918736966014
1.2135441827773559        1.0010479750838297       265.31488264612375
1.2080246168281634        0.9891224189505977       265.7535906070122
0                         0.78125                  296.16378783250354
0.1266202131332831        0.8561250457198302       292.3175702431867
0                         0.625                    296.57922440709996
0.12600729448283998       0.7003737825604232       292.9080474454408
0                         0.3125                   297.302493737485
0.11403902682908554       0.23788052316719863      294.678808696844
0                         0.46875                  296.97948596574645
0.12198067785632104       0.38839215401144744      294.1312550238445
0.12578553706712248       0.5436728150244252       293.51617834859377
0.3151356913387434        0                        290.7761081390564
0.2356999017335478        0.1383295080685469       292.2289667422355
1.2263330440729332        1.00250255256785         265.23148362111334
1.221042847638368         0.9894184724596409       265.7102495472921
1.239804650590141         1.0047222699123224       265.1217178714528
1.2349759460350762        0.9910105661588055       265.62307922089286
0.9559060293771957        1.3891974754898408       261.32085781206985
0.9273287613224352        1.3867813155552657       262.0849275623118
0                         1.71875                  297.45257117437416
0.12566493089609118       1.6391224110910338       293.7705206340435
0                         1.875                    298.41997267599044
0.12553723745636963       1.7945929356489279       295.08046036043385
0                         2.03125                  299.4623324700151
0.12565039819492116       1.946572998515866        296.52147464090814
0                         2.1875                   300.52793336212466
0.1251619698307643        2.095708849615626        298.0441844314082
0.14056325295810115       2.26305064038099         299.6482337010713
0.3121584070474589        2.5                      301.9926984913337
0.23794156406170494       2.385923906027776        300.46566833495314
0.4731175991602443        0                        287.9968278326119
0.3972726626424648        0.1255105931110029       289.1644033144332
1.2539495789193658        1.0078318617012676       264.9806908322255
1.2499533672428682        0.9933289549334315       265.5123052818947
0.9706782734854541        1.4137379584325358       262.79387691857187
0.9378540292513742        1.4093700960563653       263.2832472704463
0.4686516727233177        2.5                      301.6522591946994
0.3864387554153606        2.373317592297447        299.3894853819025
0.6310995069817452        0                        285.644135772844
0.5541822464720392        0.12587447663545662      286.596319888844
1.2689889200213156        1.0120459517741092       264.7997781665577
1.2660131852648568        0.9961544062365814       265.3864887027955
0.991359434385935         1.44040503325881         264.2277473549939
0.9588129252313339        1.4464155997402004       265.12729721454707
0.6251449383991765        2.5                      301.3425666987324
0.544422049457933         2.369978801343956        298.43637641485924
0.7890814148032461        0                        283.7427266043035
0.709905227885277         0.12736386719381096      284.4679097550163
1.2855513326628394        1.0178260878928453       264.5604658487943
1.2828646494703535        0.9994247479205703       265.250074363947
1.0204977605277157        1.4687007383734292       265.5789449779291
0.98808116247814          1.4840444505420989       266.7778503956334
0.7816382040750354        2.5                      301.08224277259944
0.7018332139488211        2.370712813971854        297.6869855752422
0.947063322624747         0                        282.3159655727553
0.8679481434747776        0.1280219697229913       282.7754052472142
1.3036828329000174        1.0256232811992219       264.2431842337368
1.3021393868016324        1.0046027277633547       265.0495077891403
1.4198804904675189        1.3968330766629253       261.52388287910225
1.4299472355772225        1.3774736597557342       260.1784505293105
1.4417539315101877        1.3978550309283293       262.15158526566915
1.0637787590787673        1.4980090091397842       266.8409518006705
1.027220387252905         1.5182089575119067       268.1033665317052
0.9381314697508941        2.5                      300.8902096027728
0.8585091010456161        2.3714662929189156       297.1095231569452
1.105045230446248         0                        281.38340398034956
1.0260622582498662        0.12844394256594918      281.5705387095108
1.4375438078542981        1.3595889168613011       258.82683157006596
1.449482872581905         1.3761359461294573       260.7001853909488
1.3233285185784456        1.0359836116482555       263.8217662077642
1.3234346468694602        1.0126713745206826       264.74894704557096
1.4064731122507528        1.4178541516363645       262.8500981719722
1.4309887406601545        1.4217185493894762       263.5980179442959
1.12269094890492          1.5213093670560631       267.76252900541346
1.0852586225445022        1.5589770680194235       269.6374306597186
1.0946247354267529        2.5                      300.78417945429476
1.0141705563169126        2.3729069997720003       296.7650834132883
1.263027138267749         0                        280.97011199398156
1.1846147452393674        0.12859936923670784      280.88622020915005
1.4210090460892497        0                        281.0769637050357
1.342042235166725         0.1256165680019654       280.7511459473257
1.4431890850617553        1.3432322644795052       257.491109181577
1.454660329849465         1.3565347391416507       259.26959192813956
1.4473129136108847        1.3283645365253887       256.2095473329855
1.4575965173484922        1.3399961483972676       257.96671105362196
1.3446384243810785        1.049797867796489        263.25070408199906
1.3467244331728077        1.0241797438974012       264.3255390007661
1.3887039645348156        1.440333209855254        264.11193146029086
1.4156846083081065        1.4476700381555616       264.9918334328257
1.365529632334522         1.4635304716473196       265.3005145119196
1.3943906659434568        1.474847146212247        266.28019817255694
1.19                      1.5299999999999998       268.0884910029766
1.177120998449559         1.5784677333482975       270.26338085625235
1.3369113541756275        1.485549436667345        266.30931772235414
1.3664955239649874        1.5019164676317203       267.427846032795
1.3014501689440685        1.5054243328832138       267.14856648556486
1.3321487677420978        1.5280830498150675       268.45331657811715
1.2524067485930857        1.5225468845279229       267.81432109013076
1.236063974289192         1.5698768921487865       269.9391110614095
1.290651976078522         1.5521867996156595       269.33764447536987
1.2511180011026117        2.5                      300.7748396489265
1.1697663212378688        2.3757047383827765       296.6997697525325
1.5789909539107505        0                        281.6728942036719
1.4997361152227864        0.12458732879502328      281.12478556806406
1.7369728617322515        0                        282.7020850806593
1.6572839469081169        0.12432339894232247      281.9658995104614
1.4503603651646693        1.3143708441422675       254.9798423058854
1.4600064182285588        1.324658986687365        256.73648852296395
1.4525387811815067        1.3010331566162194       253.8655513394158
1.4629723685055878        1.310069740227015        255.71416890102128
1.4539683119697306        1.2883608706141463       252.94173809630448
1.4638739740063924        1.296201949026012        254.7259468922185
1.4547567033717523        1.2763528859644588       252.30995175878812
1.464010356546212         1.2829329466904824       253.92393901211287
1.455                     1.265                    252.02421332444078
1.4636440203028696        1.2708196730134087       253.40962886058136
1.4547301614294281        1.2530441800971661       252.10774397367683
1.4639049176366552        1.2598337435868403       253.322807201652
1.3674121206468342        1.068149956953032        262.4649252155981
1.3714880449453957        1.0403331704457304       263.7231357636011
1.8949547695537525        0                        284.0942959322395
1.8152254092981701        0.12431316445447625      283.2106692110182
2.842846200501234         0                        296.92350141628185
3                         0                        299.5081300996528
2.8920721492038073        0.09992265311652979      297.71356662998437
3                         0.15443553432463425      299.49992161345637
1.3950886763398493        2.5                      300.8482438971829
1.3148352536870316        2.379006504220646        296.87854326788823
1.453748923606195         1.2392802547335018       252.60682321974411
1.4649255853155294        1.2460235974379794       253.6983544257682
1.4517282432166023        1.2234870297045475       253.50313500775755
1.4651243440332975        1.2294779802349967       254.4266564540038
1.4482231689925735        1.2054534216311898       254.71685011185903
1.4635457726340029        1.2113087013796109       255.3544713746821
1.3901569755632066        1.091327362162631        261.4090008331158
1.3959037512506405        1.0617634820842006       262.8880909871777
1.4088775232085484        1.115609137380858        260.2229206487757
1.4180426453790433        1.0866742855408762       261.8640330289181
1.4426690990035256        1.185104277907096        256.1075195499448
1.4608249937254436        1.190892795508763        256.5424073599318
2.0529366773752535        0                        285.7916977202818
1.9732531976485825        0.12421346188206017      284.7908146466522
2.210918585196754         0                        287.72779892423165
2.131487918210382         0.12377824242705752      286.64539191674334
2.368900493018255         0                        289.8433832996087
2.2898229499123794        0.12311650849928589      288.70618585075925
2.526882400839756         0                        292.0943069186859
2.4482083697228667        0.1224591444475835       290.91858925209914
2.684864308661257         0                        294.45558009973024
2.60589837138159          0.11987802622491833      293.23748463817225
2.758835851588824         0.11208043266324373      295.5848745931098
3                         0.30887106864926905      299.4663172378134
2.858678693928978         0.23309729859477102      297.1331323962781
1.520579724626321         2.5                      300.9661891034302
1.453939000657272         2.3828469990468104       297.24111817218517
1.6082180415564715        1.4367819584435284       272.7503758279248
1.6176504138534857        1.447281750894774        273.67898836300833
1.603096724250609         1.4504034080233434       272.7930581482792
1.588243503257907         1.4100829285363168       270.01967775810044
1.5982729532499709        1.424363288352465        271.3295701389827
1.5807106789128273        1.4253145508675145       270.31095651087804
1.5922089713047853        1.4389074562369608       271.65141926136886
1.5784258559546571        1.3938348392697675       268.607002951546
1.5691631406570279        1.4096593011759317       268.8560186746823
1.5694253315848563        1.3761252847777845       267.10632467859773
1.5584637441271891        1.3916154303619432       267.27365577971767
1.4235747896877158        1.1398288466844724       258.8924984689151
1.4358371665498624        1.113585884219863        260.6635783260212
1.43463663191236          1.1631279315681848       257.52065069909304
1.4565280219855201        1.1683197633861575       257.84839073351395
1.4500399268764745        1.1417300906532628       259.3160609593595
3                         0.46330660297390386      299.4280213158861
2.8722770212942383        0.39578769139298026      297.2953134483864
1.6453323403028732        2.5                      301.12294919800433
1.578578398293248         2.3836493589035284       297.6001662907291
1.6277182491052258        1.4573495861465142       274.3227198768743
1.6132630447242777        1.462046814553278        273.69201797961017
2.0023495861465146        1.4472817508947744       285.404395717767
2.0117819584435286        1.4367819584435284       285.47912757765454
2.0187864887042775        1.4525776641658057       285.7410376200842
2.022119799634336         1.423840141661637        285.5206344216644
2.0296824065260255        1.4394155638431452       285.7547284088633
2.0325118055985616        1.4089218411821776       285.4657386975075
2.041175962089126         1.4250833675475323       285.7486123413841
1.554858545182973         1.3366089242612336       263.92183788883574
1.5615111469893181        1.3570776299077891       265.5349646206754
1.54090576814088          1.3518137674659154       263.93800087613323
1.5500745068451804        1.3715934138558303       265.65148437354077
1.9922817508947746        1.4573495861465142       285.42675337767713
2.007109784347773         1.4618727450592925       285.6936755992163
1.5496878901243176        1.3146246456115378       262.3625179005809
1.5341628539164343        1.3297674125903167       262.23625642771776
3                         0.6177421372985387       299.3954458058971
2.8726926489185622        0.5448991397859057       297.24175049351237
1.7704831687214742        2.5                      301.3070482486512
1.7045020530740118        2.3842061680009423       298.0428962169687
1.8966907132655364        2.5                      301.50470962849994
1.8290505525490295        2.385840418692745        298.5542559838884
3                         2.5                      302.97286302611366
2.8443345926918466        2.5                      302.78997010083754
2.8989795692858573        2.3927997857596917       302.3373429439014
3                         2.345564465675366        302.4669217311616
1.6382180415564715        1.4667819584435284       274.9075400997055
1.622840788167169         1.4736449139526797       274.45288832661805
1.6511598583383618        1.4771197996343353       275.9404514468188
1.6353057148709318        1.4852653655161376       275.3645209989682
2.042524761578418         1.3921111138055982       285.36252808982675
2.052592128339599         1.409106994405768        285.702840652852
1.5462754872950335        1.290968854393832        261.0450824411696
1.528473529541538         1.3045392193005587       260.5632988950831
1.9817819584435283        1.4667819584435284       285.5487853285534
1.9951872545496876        1.471877325487826        285.70727592942876
3                         0.7686281136526354       299.39070507924873
2.873876101250584         0.6933457816173031       297.2266916147503
2.0219061406888135        2.5                      301.7023189091664
1.9519546161296824        2.387263686538424        299.0688689768961
2.144315391977707         2.5                      301.8914977943532
2.072782977356694         2.3891364838510665       299.57672696092726
2.26518268997682          2.5                      302.0634914006388
2.19823540424644          2.3906861001553414       300.0837320715611
2.388817413157449         2.5                      302.2317756018395
2.3281318951056322        2.379897451595517        300.38138905180836
2.5313483272766817        2.5                      302.42007227670064
2.4587908774162672        2.370292135242192        300.73702552966864
2.687841592952541         2.5                      302.6050345814142
2.604425779563174         2.368526855708377        301.24341968199593
2.762931067619418         2.3560540187048997       301.68515985313564
2.9999999999999996        2.1911289313507316       301.9910299836318
2.8860619230606286        2.265321478191416        301.672568633342
1.6660781588178222        1.487511805598561        276.9592649017449
1.6495106462141993        1.4968084682113352       276.35202590754403
2.0514773892896563        1.3741497616206808       285.234087444147
2.0632640847150463        1.3913232823091544       285.6185457787487
1.96929660814043          1.4767772193484328       285.63868220327475
1.9836794755840719        1.4825256941079872       285.75552095757257
1.545                     1.265                    260.1662653777562
1.5250317607666524        1.278345455462879        259.3441942600585
1.5465314669607264        1.2365512373180614       259.9429102113959
1.524151086264233         1.2499991184089636       258.81536328346823
1.5514497247672374        1.2068901456114134       260.4910054820368
1.5256497069834054        1.218662799704862        259.14009751014055
1.5605174826268366        1.1756497144652052       261.70471783279476
1.5311672508918768        1.1835640444546425       260.3465189852985
2.0592269344292142        1.3550607303713222       285.07291001070274
2.072882065059592         1.3720343043204606       285.50036798639434
1.574662757443982         1.1431747880521852       263.3810646691617
1.5430978819535939        1.1466377747979353       262.1595551511636
3                         0.9119981838668656       299.4283327195732
2.8776413815794535        0.838329655551366        297.3075818508809
3.0000000000000004        2.0366933970260974       301.5342374526506
2.8835446222061076        2.11185437142551         300.94155580058435
1.682888886194403         1.4975247615784186       277.9802437898014
1.6658828440853684        1.5078850380808202       277.3687982470561
1.7008502383793203        1.5064773892896572       278.95405685611183
1.6839728079613463        1.5177107087213466       278.36586296156094
1.9549289373698113        1.4868571682701668       285.6136642724644
1.9709078074078772        1.4941873540120514       285.76596241150736
2.0656502280414726        1.3347707739841181       284.8738383295668
2.0813608007571074        1.3512453434559932       285.3475414507415
1.938576148990433         1.496717875682455        285.5145734777529
1.9556602481934997        1.505876502482647        285.70325417337466
1.5949483817399854        1.1101523281293868       265.2931711127845
1.5559768973022845        1.1081074793975723       264.1050340846322
1.6224050371954188        1.0778286081412336       267.27201411162724
1.5832841208003419        1.068886074109573        266.378682169025
3                         1.048670368413628        299.51398103672335
2.8826745635941324        0.9783694219204038       297.47829443737965
3                         1.8964913633209581       301.13857152768253
2.8787744702318987        1.9643248415750438       300.2416491840645
1.7199392696286784        1.5142269344292143       279.87909024043944
1.7033702007904032        1.5268020666348345       279.3304545313497
2.0705760283536           1.313219637570848        284.635108012324
2.08838777812199          1.3288220648075988       285.1540321730302
1.920752105175807         1.505746695094921        285.34665753936486
1.9385095300777948        1.5173851754720233       285.5713168561451
2.073793432021956         1.2902591611515044       284.34802743985944
2.0938364608081477        1.3047354699511917       284.91787364493126
1.6578996274186435        1.0479965975828658       269.3135854811043
1.6169507828381269        1.031919130507093        268.56350527120503
1.7017583508335343        1.02311418936671         271.29788416602935
1.6594637759981299        0.998755883301158        270.6631850653708
1.7402292260158823        1.5206502280414727       280.76028542820296
1.723952691583471         1.5353654263437848       280.2558411855645
3                         1.775798340099313        300.81576933396985
2.877944128590517         1.8244295362193967       299.64393652031885
3                         1.658647880920129        300.52662921169684
2.8909986333029596        1.6980466588658925       299.3027729573405
3                         1.5440252474371499       300.26879705779163
2.897281385257757         1.5807184243584427       298.98754520233905
3                         1.4263836519032185       300.0327556693128
2.9009828848214525        1.4737918256616585       298.71521811700364
3                         1.3041356770507497       299.820461081453
2.896296015428442         1.3555191482989704       298.33356048494085
3                         1.179436509204965        299.6468824915851
2.8881812404186684        1.1123886829464027       297.7268686412856
2.89295017408549          1.2381558994207553       298.0208277681557
1.9015761977074683        1.513674083919982        285.10619658266575
1.9189928321795495        1.5275037713614192       285.3563541868538
2.075                     1.265                    283.9922567596448
2.0973985720197823        1.2787578528462662       284.6313140343046
2.0736855412406316        1.2386383737103561       283.5798257701847
2.098438926436927         1.2508602862877407       284.284340687217
1.8809643437637766        1.5203214873726378       284.78370253432854
1.8974604153960304        1.5359785961172463       285.0540006282183
2.0696138871723324        1.2118433486074274       283.1204826119203
2.0964892889200457        1.221493583017864        283.8767440215793
1.7534731835845045        1.00609901694677         273.06435590228773
1.7115664735922673        0.9749918940060875       272.5593964964101
1.81                      1                        274.6328893649415
1.768064010183424         0.962972227923665        274.191650386871
1.7617803624291526        1.5255760283535997       281.59946377077773
1.746121226495945         1.5424781663277105       281.1424964621461
2.0623082536195816        1.1839719483423363       282.58826279594757
2.091124085632385         1.1907160176703508       283.4025092639545
1.8646439340153727        1.0056950820456279       276.0301047883497
1.821421207631618         0.9583830419002508       275.597279720876
1.9125528124450872        1.0206479575293          277.29396755497623
1.892248809383378         0.9769013224341936       277.220345047514
1.8588159206393213        1.5254649801645803       284.36540665321917
1.8740306391856913        1.5430308759047924       284.6541400702113
1.8350711432890794        1.5288113677880055       283.83113578451963
1.8493561762108512        1.5492587445983956       284.157118049914
2.0511332260216286        1.1550920052571145       281.969740490972
2.0821426008121198        1.1583088249703095       282.85878450710567
1.7847408388484953        1.5287934320219558       282.39764133016325
1.770368136845547         1.5490627848201974       282.01012300340875
2.035409527916974         1.1256603260939408       281.2490738083191
2.069112936019063         1.1243553416708545       282.24348397657064
1.9534561872733174        1.0421876970789026       278.45436426324795
1.9419690584320375        0.9982199623896717       278.43262050126816
1.9872825053633176        1.0680332177952199       279.490239974932
1.9973121472428848        1.0231526561750193       279.94795379036896
1.81                      1.5299999999999998       283.1688753708003
1.8232930498441684        1.5530287209932954       283.5468395388753
1.7962846411895883        1.552968528682922        282.81745354715207
2.014387110453115         1.0963260272578301       280.4211988949403
2.05095986522253          1.0893052445590297       281.54657032953145
2.026715153315404         1.0533292542041446       280.7682705166971
0.9020920202834551        1.2403263937489974       256.97918982478285
0.9024594649474775        1.2536698974458949       256.59212290138595
0.9063045732904865        1.2653131823800146       255.9945114657436
0.9031285546633785        1.2253839512550457       257.50879057198057
0.902180880755816         1.2771409455665776       256.7192689408653
0.9045741538508798        1.2091008777913599       258.27296175778207
0.9109858930452858        1.195133220318822        258.6182030242375
0.889299005807309         1.2335454799904373       258.6479308730389
0.8885477437229312        1.2486803773314807       258.3664943171196
0.8912036322953047        1.2653605103638028       257.94217945872407
0.8890386500042796        1.2139557754768784       259.44249961315535
0.8990132968245242        1.2933190395590786       257.6609423112871
0.8864206240707088        1.2829986727043365       258.7538402210402
0.8908691342863014        1.192446339613258        260.31558662071535
0.9079806770106228        1.1793325289150811       259.8568797836835
0.8760452857346805        1.2267969785058737       260.1808413763355